/*--------------------------------*- C++ -*----------------------------------*\
  =========                 |
  \\      /  F ield         | OpenFOAM: The Open Source CFD Toolbox
   \\    /   O peration     | Website:  https://openfoam.org
    \\  /    A nd           | Version:  9
     \\/     M anipulation  |
\*---------------------------------------------------------------------------*/
FoamFile
{
    format      ascii;
    class       volScalarField;
    location    "0.5";
    object      p;
}
// * * * * * * * * * * * * * * * * * * * * * * * * * * * * * * * * * * * * * //

dimensions      [0 2 -2 0 0 0 0];

internalField   nonuniform List<scalar> 
400
(
3.75204e-06
-0.0029161
-0.00644158
-0.00910982
-0.0100941
-0.0090325
-0.00589417
-0.000875423
0.00566646
0.0132495
0.021292
0.0291406
0.0361146
0.0415696
0.0449835
0.0460613
0.0448501
0.0418507
0.0380966
0.035195
0.0029013
-0.000111146
-0.00286286
-0.00468215
-0.00519201
-0.00414333
-0.00149739
0.0026108
0.00791701
0.0140514
0.0205575
0.0269181
0.0325939
0.0370785
0.0399683
0.0410425
0.0403475
0.0382429
0.0352958
0.0323299
0.00663403
0.00246812
-0.000492964
-0.00214878
-0.00255598
-0.00159442
0.000739453
0.00432266
0.00893805
0.014283
0.0199767
0.0255778
0.030616
0.0346394
0.0372745
0.0382946
0.0376977
0.035712
0.0324992
0.0283674
0.00990831
0.00418614
0.000533354
-0.00133906
-0.00185296
-0.00100388
0.00116315
0.0045128
0.00884698
0.0138994
0.0193294
0.0247287
0.0296449
0.0336225
0.0362576
0.0372649
0.0365657
0.0342757
0.0302397
0.0244639
0.0118381
0.00451051
4.26372e-05
-0.00215638
-0.00282242
-0.0020489
7.38296e-05
0.00339348
0.00772145
0.0128145
0.0183548
0.0239455
0.0291246
0.0333998
0.0363004
0.037448
0.0366655
0.0339615
0.0289126
0.0213289
0.0117536
0.00284692
-0.00245219
-0.0049867
-0.00577239
-0.00498646
-0.00275846
0.000743438
0.00533727
0.0107968
0.0168178
0.0230013
0.0288563
0.0338278
0.037345
0.0389009
0.0381906
0.0351037
0.0289625
0.0194371
0.00908052
-0.0013754
-0.007472
-0.0102849
-0.0110979
-0.0101664
-0.00765478
-0.0037437
0.00139396
0.00755021
0.0144337
0.0216386
0.0286344
0.0347825
0.0393795
0.0417473
0.0414082
0.038096
0.030846
0.0191987
0.00325185
-0.00873737
-0.0155601
-0.0185329
-0.0192215
-0.0179656
-0.0149644
-0.0104062
-0.00444705
0.00273309
0.0108656
0.0195453
0.0282023
0.0361019
0.042378
0.0461294
0.0466403
0.043417
0.0351152
0.0211063
-0.00635215
-0.0198808
-0.0273188
-0.0302613
-0.0306018
-0.0287859
-0.0250533
-0.0195951
-0.0125372
-0.00401267
0.00575498
0.0163828
0.0272775
0.0376093
0.0463246
0.0522412
0.0543154
0.0517083
0.0425264
0.02587
-0.0204535
-0.0355537
-0.0434306
-0.0460417
-0.0457012
-0.0430028
-0.0382408
-0.0316038
-0.0231688
-0.0129925
-0.00121737
0.0118357
0.0255862
0.0391322
0.0512244
0.0603432
0.0650042
0.0638493
0.0541594
0.0345632
-0.0399466
-0.0566749
-0.0646832
-0.0664648
-0.0649254
-0.0608786
-0.054695
-0.046554
-0.0364566
-0.024343
-0.010223
0.00570418
0.022935
0.0405509
0.0571319
0.0707847
0.0794616
0.0810479
0.0715723
0.04882
-0.0660387
-0.0844451
-0.0920041
-0.0921006
-0.0885311
-0.0824366
-0.0742875
-0.064239
-0.0521767
-0.03787
-0.0211288
-0.00195101
0.0193334
0.04189
0.0642102
0.0840445
0.0986804
0.104955
0.097021
0.0711458
-0.100559
-0.120548
-0.126507
-0.123426
-0.116486
-0.107288
-0.0964082
-0.0839359
-0.0695789
-0.0528631
-0.033316
-0.0106359
0.0151486
0.0434424
0.0728148
0.100781
0.123948
0.137805
0.133781
0.105456
-0.14665
-0.167504
-0.169516
-0.160671
-0.148249
-0.134404
-0.119754
-0.104219
-0.0872227
-0.0679477
-0.0455455
-0.01929
0.0112283
0.0458656
0.0835436
0.121836
0.156844
0.182535
0.186633
0.158105
-0.210288
-0.229239
-0.222458
-0.203473
-0.182401
-0.161811
-0.142114
-0.122833
-0.102918
-0.0810708
-0.0559539
-0.0263158
0.00885708
0.050114
0.0971149
0.148028
0.199009
0.242736
0.262491
0.239795
-0.303155
-0.311776
-0.286466
-0.250294
-0.216175
-0.186312
-0.160287
-0.136766
-0.113924
-0.0897891
-0.0624193
-0.0299405
0.00939686
0.0570819
0.113988
0.179711
0.251613
0.322183
0.370768
0.368288
-0.448095
-0.42361
-0.361708
-0.298089
-0.245418
-0.203708
-0.170533
-0.142879
-0.11767
-0.0920415
-0.0633447
-0.0290243
0.0134904
0.0668489
0.133677
0.21614
0.314631
0.423799
0.523147
0.572754
-0.699181
-0.574728
-0.442775
-0.339267
-0.263073
-0.208337
-0.168809
-0.138547
-0.112654
-0.087215
-0.0588851
-0.0244818
0.0193356
0.0764972
0.15192
0.251738
0.381868
0.544127
0.734052
0.916005
-1.2055
-0.767561
-0.494339
-0.342575
-0.247377
-0.18623
-0.146819
-0.119448
-0.0973622
-0.0759174
-0.0514973
-0.0206956
0.0200945
0.0756408
0.152965
0.262984
0.420765
0.648988
1.01115
1.5538
-2.10192
-0.957708
-0.447037
-0.261063
-0.172065
-0.123941
-0.0983493
-0.0834769
-0.0721578
-0.0601428
-0.0444083
-0.0223534
0.00914735
0.0542178
0.119858
0.219406
0.378686
0.661735
1.28714
2.54744
)
;

boundaryField
{
    movingWall
    {
        type            zeroGradient;
    }
    fixedWalls
    {
        type            zeroGradient;
    }
    frontAndBack
    {
        type            empty;
    }
}


// ************************************************************************* //
