/*--------------------------------*- C++ -*----------------------------------*\
  =========                 |
  \\      /  F ield         | OpenFOAM: The Open Source CFD Toolbox
   \\    /   O peration     | Website:  https://openfoam.org
    \\  /    A nd           | Version:  9
     \\/     M anipulation  |
\*---------------------------------------------------------------------------*/
FoamFile
{
    format      ascii;
    class       surfaceScalarField;
    location    "0.5";
    object      phi;
}
// * * * * * * * * * * * * * * * * * * * * * * * * * * * * * * * * * * * * * //

dimensions      [0 3 -1 0 0 0 0];

internalField   nonuniform List<scalar> 
760
(
1.36663e-08
-1.37244e-08
-2.3624e-08
3.72904e-08
-1.15737e-07
9.21127e-08
-2.45947e-07
1.30209e-07
-3.94857e-07
1.48909e-07
-5.44499e-07
1.49643e-07
-6.79494e-07
1.34995e-07
-7.8733e-07
1.07835e-07
-8.58356e-07
7.10263e-08
-8.85882e-07
2.75255e-08
-8.66503e-07
-1.93788e-08
-8.00633e-07
-6.58695e-08
-6.93083e-07
-1.0755e-07
-5.53487e-07
-1.39596e-07
-3.96325e-07
-1.57161e-07
-2.40272e-07
-1.56053e-07
-1.06543e-07
-1.33729e-07
-1.59873e-08
-9.05558e-08
1.66036e-08
-3.25906e-08
1.66037e-08
-3.55689e-08
2.18443e-08
-1.83262e-07
1.84983e-07
-4.36914e-07
3.45767e-07
-7.65455e-07
4.58749e-07
-1.13016e-06
5.1361e-07
-1.49231e-06
5.11796e-07
-1.81702e-06
4.59704e-07
-2.07502e-06
3.65832e-07
-2.24357e-06
2.3958e-07
-2.30722e-06
9.11724e-08
-2.25864e-06
-6.79538e-08
-2.09971e-06
-2.24803e-07
-1.84242e-06
-3.64837e-07
-1.50941e-06
-4.72611e-07
-1.13341e-06
-5.33159e-07
-7.55217e-07
-5.34243e-07
-4.19446e-07
-4.695e-07
-1.67741e-07
-3.42261e-07
-2.87228e-08
-1.7161e-07
-1.21191e-08
-9.42095e-08
1.16054e-07
-3.60989e-07
4.51761e-07
-7.68306e-07
7.53084e-07
-1.26946e-06
9.59898e-07
-1.81155e-06
1.0557e-06
-2.34228e-06
1.04253e-06
-2.81421e-06
9.31626e-07
-3.18721e-06
7.38832e-07
-3.43004e-06
4.8241e-07
-3.52151e-06
1.82644e-07
-3.45172e-06
-1.37737e-07
-3.22339e-06
-4.53135e-07
-2.85296e-06
-7.35266e-07
-2.37114e-06
-9.54429e-07
-1.82214e-06
-1.08217e-06
-1.2609e-06
-1.09548e-06
-7.47824e-07
-9.82573e-07
-3.40706e-07
-7.49378e-07
-8.43521e-08
-4.27964e-07
-9.64712e-08
-1.47747e-07
2.63801e-07
-5.29883e-07
8.33897e-07
-1.08466e-06
1.30786e-06
-1.74602e-06
1.62126e-06
-2.44712e-06
1.7568e-06
-3.12471e-06
1.72012e-06
-3.72247e-06
1.52939e-06
-4.19314e-06
1.2095e-06
-4.4999e-06
7.8917e-07
-4.61764e-06
3.00392e-07
-4.5343e-06
-2.21084e-07
-4.25228e-06
-7.35149e-07
-3.78996e-06
-1.19759e-06
-3.18249e-06
-1.5619e-06
-2.48148e-06
-1.78318e-06
-1.7525e-06
-1.82447e-06
-1.06992e-06
-1.66515e-06
-5.08946e-07
-1.31035e-06
-1.35858e-07
-8.01052e-07
-2.32329e-07
-1.96257e-07
4.60059e-07
-6.88151e-07
1.32579e-06
-1.38454e-06
2.00425e-06
-2.19829e-06
2.43502e-06
-3.04807e-06
2.60658e-06
-3.86079e-06
2.53283e-06
-4.57331e-06
2.24191e-06
-5.13351e-06
1.7697e-06
-5.50096e-06
1.15662e-06
-5.64767e-06
4.47105e-07
-5.55926e-06
-3.09499e-07
-5.23652e-06
-1.05789e-06
-4.69733e-06
-1.73678e-06
-3.97834e-06
-2.28088e-06
-3.13576e-06
-2.62576e-06
-2.24409e-06
-2.71613e-06
-1.392e-06
-2.51724e-06
-6.7479e-07
-2.02757e-06
-1.84446e-07
-1.2914e-06
-4.16775e-07
-2.41786e-07
7.01846e-07
-8.39168e-07
1.92317e-06
-1.67242e-06
2.83751e-06
-2.63264e-06
3.39524e-06
-3.62378e-06
3.59772e-06
-4.56367e-06
3.47272e-06
-5.38395e-06
3.0622e-06
-6.02951e-06
2.41526e-06
-6.4578e-06
1.58491e-06
-6.63874e-06
6.28045e-07
-6.55532e-06
-3.92914e-07
-6.20525e-06
-1.40796e-06
-5.60345e-06
-2.33858e-06
-4.78507e-06
-3.09926e-06
-3.80816e-06
-3.60267e-06
-2.7547e-06
-3.7696e-06
-1.72826e-06
-3.54367e-06
-8.47349e-07
-2.90848e-06
-2.34092e-07
-1.90465e-06
-6.50867e-07
-2.86324e-07
9.8817e-07
-9.86979e-07
2.62383e-06
-1.9533e-06
3.80383e-06
-3.054e-06
4.49593e-06
-4.17848e-06
4.72219e-06
-5.23665e-06
4.53089e-06
-6.15684e-06
3.98239e-06
-6.88303e-06
3.14145e-06
-7.37237e-06
2.07425e-06
-7.59364e-06
8.49321e-07
-7.52708e-06
-4.59474e-07
-7.16582e-06
-1.76923e-06
-6.51907e-06
-2.98532e-06
-5.6169e-06
-4.00143e-06
-4.51556e-06
-4.70402e-06
-3.30188e-06
-4.98328e-06
-2.09423e-06
-4.75132e-06
-1.03731e-06
-3.9654e-06
-2.89157e-07
-2.65281e-06
-9.40024e-07
-3.3158e-07
1.31975e-06
-1.13517e-06
3.42742e-06
-2.23083e-06
4.89949e-06
-3.46372e-06
5.72883e-06
-4.70927e-06
5.96774e-06
-5.87147e-06
5.69308e-06
-6.8781e-06
4.98903e-06
-7.67525e-06
3.93859e-06
-8.22232e-06
2.62133e-06
-8.48868e-06
1.11568e-06
-8.45215e-06
-4.96007e-07
-8.10003e-06
-2.12135e-06
-7.43286e-06
-3.6525e-06
-6.47101e-06
-4.96328e-06
-5.26352e-06
-5.9115e-06
-3.89735e-06
-6.34945e-06
-2.50345e-06
-6.14522e-06
-1.25514e-06
-5.21371e-06
-3.53991e-07
-3.55396e-06
-1.29401e-06
-3.79207e-07
1.69896e-06
-1.287e-06
4.33521e-06
-2.50703e-06
6.11952e-06
-3.85887e-06
7.08066e-06
-5.20501e-06
7.31388e-06
-6.44677e-06
6.93485e-06
-7.5157e-06
6.05796e-06
-8.36434e-06
4.78723e-06
-8.95823e-06
3.21522e-06
-9.27008e-06
1.42753e-06
-9.27664e-06
-4.89446e-07
-8.95874e-06
-2.43925e-06
-8.30517e-06
-4.30606e-06
-7.32105e-06
-5.9474e-06
-6.04055e-06
-7.192e-06
-4.54257e-06
-7.84744e-06
-2.965e-06
-7.72278e-06
-1.5103e-06
-6.66841e-06
-4.32998e-07
-4.63126e-06
-1.72701e-06
-4.31486e-07
2.13044e-06
-1.44655e-06
5.35028e-06
-2.78324e-06
7.45621e-06
-4.23223e-06
8.52965e-06
-5.6453e-06
8.72695e-06
-6.92632e-06
8.21587e-06
-8.01694e-06
7.14858e-06
-8.88239e-06
5.65267e-06
-9.49974e-06
3.83257e-06
-9.8493e-06
1.77709e-06
-9.90936e-06
-4.29388e-07
-9.65474e-06
-2.69387e-06
-9.06002e-06
-4.90078e-06
-8.10886e-06
-6.89856e-06
-6.81054e-06
-8.49033e-06
-5.22335e-06
-9.43462e-06
-3.48086e-06
-9.46527e-06
-1.81092e-06
-8.33835e-06
-5.31064e-07
-5.91111e-06
-2.25808e-06
-4.92546e-07
2.62299e-06
-1.6207e-06
6.47843e-06
-3.06134e-06
8.89685e-06
-4.5722e-06
1.00405e-05
-5.99882e-06
1.01536e-05
-7.2561e-06
9.47315e-06
-8.30489e-06
8.19737e-06
-9.13142e-06
6.4792e-06
-9.73129e-06
4.43244e-06
-1.0098e-05
2.14382e-06
-1.02156e-05
-3.11818e-07
-1.0055e-05
-2.8545e-06
-9.57554e-06
-5.3802e-06
-8.7339e-06
-7.7402e-06
-7.5027e-06
-9.72153e-06
-5.90214e-06
-1.10352e-05
-4.04199e-06
-1.13254e-05
-2.16331e-06
-1.0217e-05
-6.5433e-07
-7.42009e-06
-2.91241e-06
-5.70379e-07
3.19337e-06
-1.8217e-06
7.72975e-06
-3.34459e-06
1.04197e-05
-4.86062e-06
1.15565e-05
-6.2188e-06
1.15118e-05
-7.35851e-06
1.06129e-05
-8.27246e-06
9.11132e-06
-8.97807e-06
7.18482e-06
-9.49743e-06
4.9518e-06
-9.8437e-06
2.49009e-06
-1.00119e-05
-1.43581e-07
-9.97352e-06
-2.89292e-06
-9.67443e-06
-5.67928e-06
-9.04106e-06
-8.37357e-06
-7.99821e-06
-1.07644e-05
-6.50627e-06
-1.25271e-05
-4.62132e-06
-1.32104e-05
-2.57067e-06
-1.22677e-05
-8.11462e-07
-9.1793e-06
-3.72387e-06
-6.80138e-07
3.87351e-06
-2.06971e-06
9.11933e-06
-3.63516e-06
1.19852e-05
-5.06497e-06
1.29864e-05
-6.23171e-06
1.26785e-05
-7.1204e-06
1.15016e-05
-7.77193e-06
9.76284e-06
-8.24589e-06
7.65878e-06
-8.5981e-06
5.30401e-06
-8.86696e-06
2.75896e-06
-9.06419e-06
5.36451e-08
-9.16778e-06
-2.78934e-06
-9.11612e-06
-5.73093e-06
-8.80777e-06
-8.68192e-06
-8.11304e-06
-1.14591e-05
-6.91032e-06
-1.37298e-05
-5.1611e-06
-1.49596e-05
-3.02926e-06
-1.43995e-05
-1.01558e-06
-1.1193e-05
-4.73944e-06
-8.49132e-07
4.72264e-06
-2.39247e-06
1.06627e-05
-3.92211e-06
1.35148e-05
-5.11672e-06
1.4181e-05
-5.91179e-06
1.34736e-05
-6.36908e-06
1.19589e-05
-6.59611e-06
9.98987e-06
-6.70325e-06
7.76592e-06
-6.78323e-06
5.38399e-06
-6.90151e-06
2.87724e-06
-7.09018e-06
2.42309e-07
-7.34053e-06
-2.53899e-06
-7.59409e-06
-5.47737e-06
-7.73278e-06
-8.54323e-06
-7.57705e-06
-1.16148e-05
-6.90896e-06
-1.43979e-05
-5.549e-06
-1.63195e-05
-3.51778e-06
-1.64307e-05
-1.28617e-06
-1.34246e-05
-6.02561e-06
-1.12201e-06
5.84464e-06
-2.8123e-06
1.2353e-05
-4.1439e-06
1.48464e-05
-4.85975e-06
1.48968e-05
-5.02852e-06
1.36423e-05
-4.82808e-06
1.17584e-05
-4.44678e-06
9.60858e-06
-4.04534e-06
7.36448e-06
-3.74709e-06
5.08575e-06
-3.63849e-06
2.76864e-06
-3.76998e-06
3.73794e-07
-4.1518e-06
-2.15716e-06
-4.74276e-06
-4.88641e-06
-5.4307e-06
-7.85529e-06
-6.01033e-06
-1.10352e-05
-6.17607e-06
-1.42322e-05
-5.57195e-06
-1.69237e-05
-3.96763e-06
-1.80351e-05
-1.64612e-06
-1.57461e-05
-7.67173e-06
-1.55367e-06
7.39831e-06
-3.28844e-06
1.40877e-05
-4.08776e-06
1.56457e-05
-3.93916e-06
1.47482e-05
-3.14973e-06
1.28529e-05
-2.04553e-06
1.06542e-05
-8.89684e-07
8.45273e-06
1.27517e-07
6.34727e-06
8.74751e-07
4.33851e-06
1.2626e-06
2.38079e-06
1.23264e-06
4.03758e-07
7.55428e-07
-1.67995e-06
-1.59699e-07
-3.97129e-06
-1.43908e-06
-6.5759e-06
-2.90135e-06
-9.57295e-06
-4.20493e-06
-1.29286e-05
-4.82802e-06
-1.63006e-05
-4.18356e-06
-1.86795e-05
-2.09399e-06
-1.78357e-05
-9.76572e-06
-2.14899e-06
9.5473e-06
-3.52654e-06
1.54653e-05
-3.14723e-06
1.52664e-05
-1.58625e-06
1.31872e-05
5.13056e-07
1.07536e-05
2.69929e-06
8.46797e-06
4.69048e-06
6.46155e-06
6.32106e-06
4.71669e-06
7.49415e-06
3.16543e-06
8.14767e-06
1.72727e-06
8.2342e-06
3.17226e-07
7.71271e-06
-1.15846e-06
6.55221e-06
-2.81079e-06
4.75417e-06
-4.77786e-06
2.40512e-06
-7.2239e-06
-2.27803e-07
-1.02957e-05
-2.56938e-06
-1.3959e-05
-3.66166e-06
-1.75872e-05
-2.5092e-06
-1.89881e-05
-1.22749e-05
-2.63502e-06
1.21823e-05
-2.43998e-06
1.52702e-05
2.01305e-07
1.26251e-05
3.74107e-06
9.64746e-06
7.2967e-06
7.19798e-06
1.04673e-05
5.29734e-06
1.30894e-05
3.83947e-06
1.51099e-05
2.69621e-06
1.65186e-05
1.75667e-06
1.73122e-05
9.33752e-07
1.74743e-05
1.55054e-07
1.69671e-05
-6.51212e-07
1.57248e-05
-1.5685e-06
1.36616e-05
-2.71468e-06
1.07043e-05
-4.26659e-06
6.88786e-06
-6.47923e-06
2.56943e-06
-9.64056e-06
-1.19832e-06
-1.38195e-05
-2.40639e-06
-1.77801e-05
-1.46813e-05
-1.03788e-06
1.32202e-05
3.44174e-06
1.07906e-05
9.39107e-06
6.67582e-06
1.4763e-05
4.27552e-06
1.9137e-05
2.82396e-06
2.25443e-05
1.89006e-06
2.51123e-05
1.27146e-06
2.69669e-05
8.41591e-07
2.82038e-05
5.19841e-07
2.88815e-05
2.56062e-07
2.9019e-05
1.74966e-08
2.85957e-05
-2.27859e-07
2.75371e-05
-5.09972e-07
2.57044e-05
-8.81893e-07
2.28747e-05
-1.43694e-06
1.87513e-05
-2.35582e-06
1.30949e-05
-3.98415e-06
6.2118e-06
-6.9364e-06
2.75828e-07
-1.18441e-05
-1.44055e-05
1.32202e-05
2.40108e-05
3.06866e-05
3.49622e-05
3.77861e-05
3.96762e-05
4.09476e-05
4.17892e-05
4.23091e-05
4.25651e-05
4.25826e-05
4.23548e-05
4.18448e-05
4.09629e-05
3.9526e-05
3.71702e-05
3.3186e-05
2.62496e-05
1.44055e-05
)
;

boundaryField
{
    movingWall
    {
        type            calculated;
        value           uniform 0;
    }
    fixedWalls
    {
        type            calculated;
        value           uniform 0;
    }
    frontAndBack
    {
        type            empty;
        value           nonuniform List<scalar> 0();
    }
}


// ************************************************************************* //
