/*--------------------------------*- C++ -*----------------------------------*\
  =========                 |
  \\      /  F ield         | OpenFOAM: The Open Source CFD Toolbox
   \\    /   O peration     | Website:  https://openfoam.org
    \\  /    A nd           | Version:  9
     \\/     M anipulation  |
\*---------------------------------------------------------------------------*/
FoamFile
{
    format      ascii;
    class       volVectorField;
    location    "0.5";
    object      U;
}
// * * * * * * * * * * * * * * * * * * * * * * * * * * * * * * * * * * * * * //

dimensions      [0 1 -1 0 0 0 0];

internalField   nonuniform List<vector> 
400
(
(0.000248589 -0.000246501 0)
(0.000121471 0.000117712 0)
(-0.00120845 0.000563867 0)
(-0.0035034 0.000874619 0)
(-0.00637063 0.00102926 0)
(-0.00942672 0.00104597 0)
(-0.0123336 0.00094932 0)
(-0.0148104 0.000762867 0)
(-0.0166346 0.000507618 0)
(-0.0176415 0.000203829 0)
(-0.0177285 -0.000126209 0)
(-0.0168636 -0.000455929 0)
(-0.0150973 -0.000753496 0)
(-0.0125738 -0.000982569 0)
(-0.00953614 -0.00110498 0)
(-0.00632158 -0.00108568 0)
(-0.00333933 -0.000900495 0)
(-0.00102525 -0.000547025 0)
(0.000232395 -7.56513e-05 0)
(0.000277181 0.000270236 0)
(-8.98251e-05 -0.000147922 0)
(-0.0016558 0.00167419 0)
(-0.00575839 0.00361872 0)
(-0.0117653 0.00499846 0)
(-0.018884 0.00568326 0)
(-0.026327 0.00570332 0)
(-0.0333485 0.00514362 0)
(-0.0392993 0.0041074 0)
(-0.0436552 0.00270285 0)
(-0.0460306 0.00104443 0)
(-0.0461934 -0.000740281 0)
(-0.0440848 -0.00250461 0)
(-0.0398402 -0.00408183 0)
(-0.0338061 -0.00529167 0)
(-0.0265425 -0.00595606 0)
(-0.0187997 -0.00592536 0)
(-0.0114539 -0.00511626 0)
(-0.00539478 -0.00356063 0)
(-0.00141744 -0.00150141 0)
(-2.01365e-05 0.000264601 0)
(-0.000547631 0.00114744 0)
(-0.00377507 0.00580437 0)
(-0.010677 0.0102288 0)
(-0.0200481 0.0133302 0)
(-0.0307451 0.0148195 0)
(-0.0417173 0.0147208 0)
(-0.0519587 0.0132012 0)
(-0.0605824 0.0104943 0)
(-0.066868 0.00686568 0)
(-0.0702858 0.00260807 0)
(-0.0705193 -0.00195044 0)
(-0.0674909 -0.00643872 0)
(-0.0613883 -0.0104447 0)
(-0.0526835 -0.0135341 0)
(-0.0421339 -0.0152898 0)
(-0.0307513 -0.0153753 0)
(-0.0197131 -0.0136219 0)
(-0.01022 -0.010132 0)
(-0.00344674 -0.00542942 0)
(-0.000443745 -0.000859957 0)
(-0.000953766 0.00358298 0)
(-0.00576833 0.0123326 0)
(-0.0153909 0.0199162 0)
(-0.0279428 0.0250537 0)
(-0.0418987 0.0273761 0)
(-0.0559803 0.0269401 0)
(-0.068991 0.0240263 0)
(-0.0798831 0.0190324 0)
(-0.087809 0.012421 0)
(-0.0921442 0.00470847 0)
(-0.0925105 -0.00352647 0)
(-0.0888048 -0.0116335 0)
(-0.0812296 -0.0188964 0)
(-0.0703184 -0.0245646 0)
(-0.0569458 -0.0279197 0)
(-0.0423036 -0.0283808 0)
(-0.0278108 -0.0256453 0)
(-0.0149667 -0.0198466 0)
(-0.0053919 -0.0117386 0)
(-0.000819863 -0.00306959 0)
(-0.00130827 0.00703597 0)
(-0.00760744 0.0210976 0)
(-0.0198448 0.0324591 0)
(-0.0354449 0.0398451 0)
(-0.0524752 0.0429343 0)
(-0.0694365 0.0418968 0)
(-0.0849759 0.0371781 0)
(-0.0979328 0.0293751 0)
(-0.107377 0.0191738 0)
(-0.112621 0.00733613 0)
(-0.113236 -0.00528752 0)
(-0.109077 -0.0177441 0)
(-0.100322 -0.0289823 0)
(-0.0875118 -0.0378933 0)
(-0.0715747 -0.0434003 0)
(-0.0538336 -0.044605 0)
(-0.0359312 -0.0409848 0)
(-0.019696 -0.0326094 0)
(-0.00727183 -0.0203591 0)
(-0.00115667 -0.006271 0)
(-0.00163406 0.0114238 0)
(-0.0093481 0.0320054 0)
(-0.0241133 0.047776 0)
(-0.0426568 0.0576124 0)
(-0.0626269 0.0613782 0)
(-0.0823082 0.0594602 0)
(-0.100217 0.0525385 0)
(-0.115118 0.0414513 0)
(-0.126034 0.0271286 0)
(-0.13224 0.0105851 0)
(-0.13326 -0.00705686 0)
(-0.128892 -0.0245394 0)
(-0.119249 -0.0404632 0)
(-0.104818 -0.0533264 0)
(-0.0865217 -0.0616288 0)
(-0.0657667 -0.0640559 0)
(-0.0444073 -0.0597382 0)
(-0.0246386 -0.0485425 0)
(-0.00921416 -0.0313539 0)
(-0.00149265 -0.010441 0)
(-0.00195239 0.0167067 0)
(-0.011054 0.0449941 0)
(-0.0282909 0.0657922 0)
(-0.0496809 0.0782573 0)
(-0.0724472 0.0825833 0)
(-0.0946713 0.0794956 0)
(-0.114772 0.069993 0)
(-0.13148 0.0552013 0)
(-0.143815 0.0363103 0)
(-0.151043 0.0145794 0)
(-0.152652 -0.00861764 0)
(-0.148365 -0.03174 0)
(-0.138188 -0.053048 0)
(-0.122487 -0.0706239 0)
(-0.102104 -0.0824747 0)
(-0.0784586 -0.0867459 0)
(-0.0535833 -0.0820489 0)
(-0.0300654 -0.0678565 0)
(-0.0113696 -0.0449013 0)
(-0.00186937 -0.015643 0)
(-0.00228132 0.0228821 0)
(-0.012783 0.0600392 0)
(-0.0324594 0.0864364 0)
(-0.056578 0.101646 0)
(-0.0819284 0.106362 0)
(-0.106418 0.10179 0)
(-0.128418 0.0893484 0)
(-0.146687 0.0705004 0)
(-0.1603 0.0467037 0)
(-0.168559 0.0194381 0)
(-0.170938 -0.00971652 0)
(-0.167077 -0.0389868 0)
(-0.156832 -0.0663297 0)
(-0.140374 -0.0894113 0)
(-0.118354 -0.105684 0)
(-0.0920976 -0.112609 0)
(-0.0637345 -0.108057 0)
(-0.0362355 -0.0908398 0)
(-0.0138916 -0.0613055 0)
(-0.00232902 -0.022029 0)
(-0.00263901 0.0299801 0)
(-0.0145925 0.077151 0)
(-0.0366883 0.109628 0)
(-0.0633565 0.127578 0)
(-0.0909425 0.132406 0)
(-0.117228 0.12598 0)
(-0.140619 0.110253 0)
(-0.159993 0.0870798 0)
(-0.174564 0.058186 0)
(-0.183737 0.0252271 0)
(-0.187018 -0.0100839 0)
(-0.183973 -0.0458276 0)
(-0.174272 -0.0797359 0)
(-0.157803 -0.109098 0)
(-0.134891 -0.130777 0)
(-0.1066 -0.141401 0)
(-0.0749977 -0.137823 0)
(-0.0433655 -0.117819 0)
(-0.0169341 -0.0809876 0)
(-0.00291764 -0.0298389 0)
(-0.00305195 0.0380676 0)
(-0.0165608 0.0963723 0)
(-0.0410569 0.135251 0)
(-0.0699835 0.155722 0)
(-0.0992314 0.1602 0)
(-0.126544 0.151447 0)
(-0.150486 0.132087 0)
(-0.170182 0.104424 0)
(-0.185106 0.0704371 0)
(-0.194866 0.0318912 0)
(-0.199066 -0.0094725 0)
(-0.197236 -0.0517174 0)
(-0.188841 -0.0924823 0)
(-0.173404 -0.128783 0)
(-0.150761 -0.15691 0)
(-0.121475 -0.17254 0)
(-0.0872894 -0.171183 0)
(-0.0516055 -0.149069 0)
(-0.02066 -0.104457 0)
(-0.00369301 -0.039405 0)
(-0.00356982 0.0472709 0)
(-0.0188242 0.117789 0)
(-0.0456925 0.163113 0)
(-0.0763982 0.185535 0)
(-0.106388 0.18891 0)
(-0.133519 0.177191 0)
(-0.156703 0.15384 0)
(-0.175493 0.121657 0)
(-0.189772 0.0828377 0)
(-0.199479 0.0391683 0)
(-0.204417 -0.00771964 0)
(-0.204143 -0.0560452 0)
(-0.19794 -0.10355 0)
(-0.184904 -0.147163 0)
(-0.164215 -0.182723 0)
(-0.135637 -0.204905 0)
(-0.100184 -0.207552 0)
(-0.0609992 -0.184672 0)
(-0.0252566 -0.132269 0)
(-0.00473869 -0.0511685 0)
(-0.00429197 0.0578315 0)
(-0.0216344 0.141559 0)
(-0.0508111 0.1929 0)
(-0.0824984 0.216145 0)
(-0.111784 0.217229 0)
(-0.136909 0.201686 0)
(-0.157412 0.173978 0)
(-0.173501 0.137421 0)
(-0.185651 0.0943662 0)
(-0.19427 0.0464959 0)
(-0.199478 -0.00483032 0)
(-0.200958 -0.0581966 0)
(-0.197878 -0.111704 0)
(-0.188911 -0.162482 0)
(-0.172451 -0.206182 0)
(-0.147139 -0.236585 0)
(-0.112717 -0.245626 0)
(-0.0714055 -0.224289 0)
(-0.0309554 -0.164944 0)
(-0.00618844 -0.0657191 0)
(-0.00541467 0.0702174 0)
(-0.0254388 0.167946 0)
(-0.0567271 0.224056 0)
(-0.0880323 0.246146 0)
(-0.114367 0.243173 0)
(-0.13483 0.2227 0)
(-0.149975 0.190312 0)
(-0.160938 0.149793 0)
(-0.168956 0.103526 0)
(-0.175027 0.0529361 0)
(-0.17969 -0.00106678 0)
(-0.182874 -0.0576529 0)
(-0.183762 -0.115573 0)
(-0.180704 -0.172543 0)
(-0.171297 -0.224468 0)
(-0.152801 -0.264605 0)
(-0.123048 -0.282987 0)
(-0.0823259 -0.266786 0)
(-0.0380433 -0.202825 0)
(-0.00826706 -0.0838706 0)
(-0.00731027 0.0853199 0)
(-0.0309673 0.197317 0)
(-0.0637357 0.25553 0)
(-0.0922403 0.273263 0)
(-0.112159 0.263789 0)
(-0.124235 0.237116 0)
(-0.130538 0.199926 0)
(-0.133379 0.156276 0)
(-0.134853 0.108361 0)
(-0.136582 0.0571658 0)
(-0.139569 0.00298564 0)
(-0.144089 -0.0541202 0)
(-0.149514 -0.113825 0)
(-0.154115 -0.174853 0)
(-0.154893 -0.233986 0)
(-0.147701 -0.284692 0)
(-0.127903 -0.315602 0)
(-0.0925247 -0.309643 0)
(-0.046811 -0.245758 0)
(-0.0113454 -0.106776 0)
(-0.0106256 0.104752 0)
(-0.0392163 0.229942 0)
(-0.0715909 0.285205 0)
(-0.0929032 0.293784 0)
(-0.101165 0.274808 0)
(-0.0999242 0.240838 0)
(-0.0932587 0.199269 0)
(-0.0847436 0.153985 0)
(-0.0772322 0.106656 0)
(-0.0728187 0.0576186 0)
(-0.0728773 0.00644328 0)
(-0.0780484 -0.0476607 0)
(-0.0880923 -0.105441 0)
(-0.101576 -0.166988 0)
(-0.115424 -0.230664 0)
(-0.124509 -0.29127 0)
(-0.121619 -0.337326 0)
(-0.0991739 -0.348058 0)
(-0.0572297 -0.292402 0)
(-0.0159458 -0.136022 0)
(-0.0162409 0.131313 0)
(-0.0508521 0.265238 0)
(-0.0778174 0.308673 0)
(-0.0840825 0.301708 0)
(-0.0732086 0.270367 0)
(-0.0528327 0.228973 0)
(-0.0291552 0.184607 0)
(-0.00665978 0.140202 0)
(0.0115167 0.0964521 0)
(0.0232311 0.0528696 0)
(0.027039 0.00830952 0)
(0.0220481 -0.0387682 0)
(0.00798317 -0.0900964 0)
(-0.0144798 -0.147234 0)
(-0.0430331 -0.210683 0)
(-0.0726912 -0.277925 0)
(-0.0945684 -0.339617 0)
(-0.0959793 -0.37371 0)
(-0.0677476 -0.338902 0)
(-0.0224085 -0.173759 0)
(-0.024434 0.170007 0)
(-0.0635975 0.299519 0)
(-0.0730363 0.316481 0)
(-0.0512747 0.287271 0)
(-0.0121735 0.242868 0)
(0.0323937 0.196488 0)
(0.0752013 0.152997 0)
(0.112034 0.113361 0)
(0.140451 0.0769009 0)
(0.158984 0.0422854 0)
(0.166604 0.00786018 0)
(0.162443 -0.0283155 0)
(0.145734 -0.0685299 0)
(0.116026 -0.115438 0)
(0.0738698 -0.171702 0)
(0.022286 -0.238523 0)
(-0.0307413 -0.311632 0)
(-0.0694873 -0.373039 0)
(-0.0720309 -0.376327 0)
(-0.0293635 -0.223131 0)
(-0.0304254 0.226679 0)
(-0.0634763 0.319396 0)
(-0.0296803 0.289769 0)
(0.0375916 0.236318 0)
(0.11132 0.18456 0)
(0.179767 0.140487 0)
(0.238184 0.104429 0)
(0.284781 0.0747668 0)
(0.319125 0.0495267 0)
(0.341203 0.0268811 0)
(0.350886 0.00513413 0)
(0.34767 -0.0174765 0)
(0.330522 -0.0430485 0)
(0.297855 -0.0743803 0)
(0.247843 -0.115288 0)
(0.17959 -0.17037 0)
(0.0956974 -0.242665 0)
(0.0076368 -0.326184 0)
(-0.0512139 -0.384156 0)
(-0.0281192 -0.283344 0)
(0.00229435 0.274026 0)
(0.00915767 0.285876 0)
(0.123156 0.206603 0)
(0.244419 0.143734 0)
(0.343291 0.100085 0)
(0.420652 0.069729 0)
(0.479909 0.0483745 0)
(0.523739 0.0328186 0)
(0.554358 0.0207858 0)
(0.573341 0.0107178 0)
(0.581492 0.00146504 0)
(0.578818 -0.00798926 0)
(0.564412 -0.0188667 0)
(0.536196 -0.0329526 0)
(0.490615 -0.0532628 0)
(0.422491 -0.0850046 0)
(0.324729 -0.136406 0)
(0.19116 -0.217055 0)
(0.0515261 -0.31866 0)
(0.0227772 -0.310027 0)
(0.294218 0.144759 0)
(0.385827 0.126861 0)
(0.543917 0.0771279 0)
(0.66086 0.0455526 0)
(0.732021 0.0274366 0)
(0.77759 0.0167955 0)
(0.808276 0.010396 0)
(0.828913 0.0063774 0)
(0.842231 0.00365018 0)
(0.849829 0.00158913 0)
(0.852516 -0.000186004 0)
(0.850477 -0.00194435 0)
(0.843302 -0.00401484 0)
(0.82979 -0.0068945 0)
(0.807392 -0.0115642 0)
(0.771065 -0.020106 0)
(0.709343 -0.0368962 0)
(0.59631 -0.0703001 0)
(0.424581 -0.12744 0)
(0.312515 -0.151331 0)
)
;

boundaryField
{
    movingWall
    {
        type            fixedValue;
        value           uniform (1 0 0);
    }
    fixedWalls
    {
        type            noSlip;
    }
    frontAndBack
    {
        type            empty;
    }
}


// ************************************************************************* //
