/*--------------------------------*- C++ -*----------------------------------*\
  =========                 |
  \\      /  F ield         | OpenFOAM: The Open Source CFD Toolbox
   \\    /   O peration     | Website:  https://openfoam.org
    \\  /    A nd           | Version:  9
     \\/     M anipulation  |
\*---------------------------------------------------------------------------*/
FoamFile
{
    format      ascii;
    class       volScalarField;
    location    "0.3";
    object      p;
}
// * * * * * * * * * * * * * * * * * * * * * * * * * * * * * * * * * * * * * //

dimensions      [0 2 -2 0 0 0 0];

internalField   nonuniform List<scalar> 
400
(
3.82393e-06
-0.0029112
-0.00643016
-0.00909255
-0.0100728
-0.0090094
-0.00587135
-0.00085487
0.00568309
0.0132612
0.0212984
0.0291423
0.0361126
0.0415655
0.0449794
0.0460594
0.0448524
0.0418584
0.0381094
0.0352111
0.00289784
-0.00010968
-0.00285631
-0.00467114
-0.00517763
-0.00412696
-0.00148051
0.00262683
0.00793105
0.0140627
0.0205658
0.0269237
0.0325973
0.0370809
0.0399711
0.0410471
0.0403555
0.0382548
0.0353118
0.0323493
0.00662563
0.00246589
-0.000490219
-0.00214205
-0.00254608
-0.00158233
0.000752742
0.00433618
0.00895095
0.0142946
0.0199868
0.0255863
0.0306233
0.0346463
0.037282
0.038304
0.03771
0.035728
0.0325193
0.028392
0.00989535
0.0041809
0.000533533
-0.00133489
-0.00184555
-0.000993939
0.00117491
0.00452566
0.00886024
0.0139124
0.0193418
0.0247402
0.0296557
0.0336331
0.0362689
0.037278
0.0365816
0.0342954
0.030264
0.0244939
0.0118228
0.00450393
4.18122e-05
-0.00215316
-0.00281581
-0.00203937
8.57753e-05
0.0034073
0.00773651
0.0128301
0.0183704
0.0239607
0.0291392
0.0334143
0.0363154
0.0374646
0.0366849
0.0339846
0.0289408
0.0213637
0.0117392
0.00284142
-0.00245199
-0.00498251
-0.00576467
-0.00497544
-0.00274446
0.000759994
0.00535578
0.0108165
0.0168379
0.0230211
0.0288756
0.0338467
0.0373641
0.0389212
0.0382133
0.0351298
0.0289938
0.0194755
0.00907066
-0.00137707
-0.00746847
-0.0102776
-0.011087
-0.0101519
-0.00763683
-0.00372262
0.00141757
0.00757546
0.0144596
0.0216642
0.0286593
0.0348064
0.0394032
0.0417715
0.0414341
0.0381249
0.0308796
0.0192392
0.00325011
-0.00873259
-0.0155511
-0.0185205
-0.0192056
-0.0179459
-0.0149409
-0.0103791
-0.00441699
0.00276513
0.0108984
0.0195777
0.0282335
0.0361316
0.0424066
0.0461577
0.0466694
0.0434483
0.0351503
0.0211475
-0.00634287
-0.0198674
-0.0273025
-0.0302423
-0.0305797
-0.0287599
-0.0250233
-0.0195611
-0.0124999
-0.00397313
0.00579532
0.0164226
0.0273156
0.0376452
0.0463585
0.0522737
0.0543475
0.0517414
0.0425622
0.0259106
-0.0204314
-0.0355306
-0.0434062
-0.0460154
-0.0456721
-0.0429701
-0.0382039
-0.0315628
-0.0231242
-0.0129455
-0.00116956
0.0118827
0.025631
0.0391742
0.0512634
0.0603797
0.065039
0.0638837
0.054195
0.0346017
-0.0399114
-0.0566419
-0.0646506
-0.0664314
-0.0648899
-0.0608399
-0.0546521
-0.0465069
-0.0364057
-0.0242895
-0.0101687
0.00575744
0.0229857
0.040598
0.0571751
0.0708243
0.0794983
0.0810827
0.0716066
0.0488551
-0.065992
-0.0844035
-0.0919648
-0.0920616
-0.0884909
-0.0823937
-0.0742407
-0.0641878
-0.0521214
-0.037812
-0.02107
-0.00189338
0.0193881
0.0419404
0.064256
0.0840857
0.0987176
0.104989
0.0970529
0.0711761
-0.100503
-0.1205
-0.126463
-0.123384
-0.116444
-0.107244
-0.0963604
-0.0838835
-0.0695221
-0.0528033
-0.0332553
-0.0105766
0.0152046
0.0434936
0.0728607
0.100822
0.123984
0.137837
0.133809
0.10548
-0.146591
-0.167454
-0.169472
-0.16063
-0.148208
-0.134362
-0.119708
-0.104169
-0.0871676
-0.0678892
-0.045486
-0.019232
0.0112825
0.0459144
0.0835866
0.121873
0.156876
0.182563
0.186656
0.158123
-0.21023
-0.229192
-0.222417
-0.203437
-0.182366
-0.161776
-0.142075
-0.122788
-0.102868
-0.0810167
-0.0558984
-0.0262619
0.00890672
0.0501578
0.0971522
0.148059
0.199035
0.242758
0.262508
0.239805
-0.303105
-0.311735
-0.286433
-0.250266
-0.21615
-0.186286
-0.160257
-0.136729
-0.113881
-0.0897412
-0.0623697
-0.0298925
0.00944043
0.0571191
0.114018
0.179735
0.251632
0.322198
0.370778
0.36829
-0.448056
-0.423579
-0.361685
-0.298072
-0.245404
-0.203692
-0.170512
-0.142851
-0.117634
-0.0920006
-0.0633015
-0.0289823
0.013528
0.0668799
0.1337
0.216157
0.314642
0.423807
0.523151
0.57275
-0.699155
-0.574708
-0.442762
-0.339261
-0.263069
-0.208331
-0.168797
-0.138526
-0.112626
-0.0871808
-0.0588477
-0.0244448
0.0193689
0.0765244
0.15194
0.251751
0.381875
0.544129
0.734051
0.915998
-1.20549
-0.767549
-0.494334
-0.342576
-0.247381
-0.186232
-0.146814
-0.119435
-0.0973404
-0.0758883
-0.0514637
-0.0206608
0.0201272
0.0756684
0.152986
0.262997
0.420772
0.64899
1.01114
1.55379
-2.10191
-0.957699
-0.447036
-0.26107
-0.172076
-0.123951
-0.098353
-0.0834714
-0.0721421
-0.0601177
-0.0443763
-0.0223176
0.00918306
0.0542501
0.119884
0.219425
0.378698
0.661741
1.28714
2.54744
)
;

boundaryField
{
    movingWall
    {
        type            zeroGradient;
    }
    fixedWalls
    {
        type            zeroGradient;
    }
    frontAndBack
    {
        type            empty;
    }
}


// ************************************************************************* //
