/*--------------------------------*- C++ -*----------------------------------*\
  =========                 |
  \\      /  F ield         | OpenFOAM: The Open Source CFD Toolbox
   \\    /   O peration     | Website:  https://openfoam.org
    \\  /    A nd           | Version:  9
     \\/     M anipulation  |
\*---------------------------------------------------------------------------*/
FoamFile
{
    format      ascii;
    class       surfaceScalarField;
    location    "0.3";
    object      phi;
}
// * * * * * * * * * * * * * * * * * * * * * * * * * * * * * * * * * * * * * //

dimensions      [0 3 -1 0 0 0 0];

internalField   nonuniform List<scalar> 
760
(
1.36414e-08
-1.36994e-08
-2.36084e-08
3.72477e-08
-1.15602e-07
9.19945e-08
-2.45641e-07
1.3004e-07
-3.94357e-07
1.48716e-07
-5.43807e-07
1.49449e-07
-6.78632e-07
1.34825e-07
-7.86337e-07
1.07706e-07
-8.57286e-07
7.09502e-08
-8.84796e-07
2.75096e-08
-8.65464e-07
-1.93322e-08
-7.997e-07
-6.57642e-08
-6.92303e-07
-1.07396e-07
-5.52892e-07
-1.39411e-07
-3.95925e-07
-1.56966e-07
-2.40054e-07
-1.55871e-07
-1.06468e-07
-1.33586e-07
-1.59969e-08
-9.04705e-08
1.65754e-08
-3.25713e-08
1.65762e-08
-3.5522e-08
2.18221e-08
-1.83013e-07
1.84741e-07
-4.36321e-07
3.45303e-07
-7.64414e-07
4.58133e-07
-1.12862e-06
5.12925e-07
-1.4903e-06
5.11124e-07
-1.81459e-06
4.59117e-07
-2.07227e-06
3.65388e-07
-2.24064e-06
2.39321e-07
-2.30426e-06
9.11245e-08
-2.25581e-06
-6.77852e-08
-2.09714e-06
-2.24434e-07
-1.84023e-06
-3.64304e-07
-1.50767e-06
-4.7197e-07
-1.13215e-06
-5.3248e-07
-7.5442e-07
-5.33605e-07
-4.19029e-07
-4.68976e-07
-1.67591e-07
-3.41911e-07
-2.8705e-08
-1.71459e-07
-1.21281e-08
-9.40742e-08
1.15897e-07
-3.60482e-07
4.51149e-07
-7.67242e-07
7.52064e-07
-1.26772e-06
9.58606e-07
-1.80909e-06
1.0543e-06
-2.33913e-06
1.04117e-06
-2.81046e-06
9.30445e-07
-3.18302e-06
7.37945e-07
-3.4256e-06
4.81902e-07
-3.51703e-06
1.82561e-07
-3.44743e-06
-1.37387e-07
-3.21948e-06
-4.52386e-07
-2.84959e-06
-7.34191e-07
-2.36842e-06
-9.53138e-07
-1.82011e-06
-1.08079e-06
-1.25954e-06
-1.09418e-06
-7.47044e-07
-9.81471e-07
-3.40362e-07
-7.48592e-07
-8.42699e-08
-4.27551e-07
-9.63977e-08
-1.47538e-07
2.63436e-07
-5.29163e-07
8.32773e-07
-1.08322e-06
1.30612e-06
-1.74374e-06
1.61913e-06
-2.44395e-06
1.75451e-06
-3.12071e-06
1.71793e-06
-3.71777e-06
1.52751e-06
-4.18792e-06
1.20809e-06
-4.49439e-06
7.88376e-07
-4.61211e-06
3.00276e-07
-4.52898e-06
-2.20513e-07
-4.24742e-06
-7.33947e-07
-3.78574e-06
-1.19587e-06
-3.17905e-06
-1.55983e-06
-2.47887e-06
-1.78097e-06
-1.7507e-06
-1.82234e-06
-1.06885e-06
-1.66332e-06
-5.08441e-07
-1.309e-06
-1.35722e-07
-8.0027e-07
-2.3212e-07
-1.96003e-07
4.59439e-07
-6.873e-07
1.32407e-06
-1.38287e-06
2.00169e-06
-2.19569e-06
2.43195e-06
-3.04451e-06
2.60334e-06
-3.85634e-06
2.52975e-06
-4.56811e-06
2.23928e-06
-5.12777e-06
1.76775e-06
-5.49492e-06
1.15553e-06
-5.6416e-06
4.46957e-07
-5.55342e-06
-3.08692e-07
-5.23116e-06
-1.05621e-06
-4.69265e-06
-1.73438e-06
-3.97449e-06
-2.27799e-06
-3.1328e-06
-2.62266e-06
-2.24202e-06
-2.71312e-06
-1.39074e-06
-2.51461e-06
-6.74181e-07
-2.02556e-06
-1.84276e-07
-1.29017e-06
-4.16396e-07
-2.41518e-07
7.00957e-07
-8.38284e-07
1.92083e-06
-1.67071e-06
2.83412e-06
-2.63e-06
3.39123e-06
-3.62019e-06
3.59353e-06
-4.55919e-06
3.46876e-06
-5.37875e-06
3.05883e-06
-6.02377e-06
2.41278e-06
-6.45177e-06
1.58353e-06
-6.63268e-06
6.27864e-07
-6.54949e-06
-3.91884e-07
-6.19988e-06
-1.40582e-06
-5.59873e-06
-2.33552e-06
-4.78115e-06
-3.09557e-06
-3.80513e-06
-3.59869e-06
-2.75255e-06
-3.7657e-06
-1.72694e-06
-3.54022e-06
-8.467e-07
-2.90579e-06
-2.33909e-07
-1.90297e-06
-6.50305e-07
-2.86075e-07
9.87033e-07
-9.86166e-07
2.62092e-06
-1.95174e-06
3.79969e-06
-3.05159e-06
4.49108e-06
-4.17521e-06
4.71715e-06
-5.2326e-06
4.52614e-06
-6.15213e-06
3.97837e-06
-6.87784e-06
3.13848e-06
-7.36691e-06
2.0726e-06
-7.58814e-06
8.49098e-07
-7.52177e-06
-4.58259e-07
-7.1609e-06
-1.76669e-06
-6.51472e-06
-2.9817e-06
-5.61326e-06
-3.99703e-06
-4.51271e-06
-4.69924e-06
-3.29984e-06
-4.97857e-06
-2.09296e-06
-4.7471e-06
-1.03668e-06
-3.96207e-06
-2.88978e-07
-2.65067e-06
-9.39282e-07
-3.31382e-07
1.31842e-06
-1.13452e-06
3.42407e-06
-2.22958e-06
4.89475e-06
-3.4618e-06
5.7233e-06
-4.70667e-06
5.96202e-06
-5.86824e-06
5.68771e-06
-6.87434e-06
4.98447e-06
-7.67109e-06
3.93523e-06
-8.21794e-06
2.61944e-06
-8.48424e-06
1.1154e-06
-8.44783e-06
-4.94671e-07
-8.09599e-06
-2.11852e-06
-7.42926e-06
-3.64843e-06
-6.46795e-06
-4.95833e-06
-5.2611e-06
-5.9061e-06
-3.89559e-06
-6.34408e-06
-2.50234e-06
-6.14035e-06
-1.25458e-06
-5.20982e-06
-3.5383e-07
-3.55142e-06
-1.29311e-06
-3.79086e-07
1.6975e-06
-1.2866e-06
4.33158e-06
-2.50626e-06
6.1144e-06
-3.85766e-06
7.07471e-06
-5.20336e-06
7.30771e-06
-6.4447e-06
6.92905e-06
-7.51327e-06
6.05304e-06
-8.36162e-06
4.78359e-06
-8.95533e-06
3.21315e-06
-9.26711e-06
1.42718e-06
-9.27371e-06
-4.88072e-07
-8.95595e-06
-2.43628e-06
-8.30264e-06
-4.30175e-06
-7.31885e-06
-5.94212e-06
-6.03876e-06
-7.18619e-06
-4.54123e-06
-7.8416e-06
-2.96413e-06
-7.71746e-06
-1.50986e-06
-6.6641e-06
-4.32867e-07
-4.62841e-06
-1.72598e-06
-4.3146e-07
2.12896e-06
-1.44646e-06
5.34658e-06
-2.78304e-06
7.45098e-06
-4.23189e-06
8.52356e-06
-5.64479e-06
8.72062e-06
-6.92564e-06
8.2099e-06
-8.0161e-06
7.14349e-06
-8.88139e-06
5.64888e-06
-9.49862e-06
3.83038e-06
-9.84809e-06
1.77665e-06
-9.9081e-06
-4.28064e-07
-9.65347e-06
-2.69091e-06
-9.05879e-06
-4.89643e-06
-8.10772e-06
-6.89318e-06
-6.80954e-06
-8.48437e-06
-5.22256e-06
-9.42858e-06
-3.48032e-06
-9.45971e-06
-1.81062e-06
-8.33379e-06
-5.30972e-07
-5.90806e-06
-2.25695e-06
-4.92623e-07
2.62158e-06
-1.62093e-06
6.47489e-06
-3.06175e-06
8.8918e-06
-4.57278e-06
1.00346e-05
-5.99954e-06
1.01474e-05
-7.2569e-06
9.46727e-06
-8.30574e-06
8.19232e-06
-9.13226e-06
6.47541e-06
-9.73208e-06
4.4302e-06
-1.00987e-05
2.14329e-06
-1.02161e-05
-3.10629e-07
-1.00554e-05
-2.8517e-06
-9.57576e-06
-5.37603e-06
-8.73395e-06
-7.73499e-06
-7.50262e-06
-9.7157e-06
-5.90197e-06
-1.10292e-05
-4.04182e-06
-1.13199e-05
-2.16319e-06
-1.02124e-05
-6.54283e-07
-7.41696e-06
-2.91123e-06
-5.70555e-07
3.19214e-06
-1.82224e-06
7.72658e-06
-3.34559e-06
1.04151e-05
-4.86208e-06
1.15511e-05
-6.22068e-06
1.1506e-05
-7.36073e-06
1.06073e-05
-8.27493e-06
9.10652e-06
-8.98069e-06
7.18116e-06
-9.50008e-06
4.94959e-06
-9.84626e-06
2.48947e-06
-1.00143e-05
-1.42591e-07
-9.97558e-06
-2.89042e-06
-9.67613e-06
-5.67548e-06
-9.04234e-06
-8.36877e-06
-7.99908e-06
-1.0759e-05
-6.50679e-06
-1.25215e-05
-4.62156e-06
-1.32051e-05
-2.57074e-06
-1.22632e-05
-8.11467e-07
-9.17624e-06
-3.7227e-06
-6.80393e-07
3.87253e-06
-2.07051e-06
9.1167e-06
-3.63663e-06
1.19813e-05
-5.06716e-06
1.29816e-05
-6.23456e-06
1.26734e-05
-7.12383e-06
1.14966e-05
-7.77579e-06
9.75848e-06
-8.25004e-06
7.65541e-06
-8.60237e-06
5.30191e-06
-8.87117e-06
2.75828e-06
-9.06817e-06
5.44051e-08
-9.17136e-06
-2.78723e-06
-9.11919e-06
-5.72766e-06
-8.81022e-06
-8.67774e-06
-8.11485e-06
-1.14543e-05
-6.9115e-06
-1.37249e-05
-5.16176e-06
-1.49548e-05
-3.02954e-06
-1.43955e-05
-1.01564e-06
-1.11901e-05
-4.73834e-06
-8.49434e-07
4.72197e-06
-2.39342e-06
1.06607e-05
-3.92389e-06
1.35117e-05
-5.11938e-06
1.41771e-05
-5.91529e-06
1.34693e-05
-6.37334e-06
1.19546e-05
-6.60097e-06
9.98612e-06
-6.70853e-06
7.76297e-06
-6.78872e-06
5.3821e-06
-6.90699e-06
2.87655e-06
-7.09543e-06
2.42841e-07
-7.34534e-06
-2.53731e-06
-7.59829e-06
-5.47471e-06
-7.73623e-06
-8.5398e-06
-7.57967e-06
-1.16109e-05
-6.91076e-06
-1.43938e-05
-5.55006e-06
-1.63155e-05
-3.51826e-06
-1.64272e-05
-1.28629e-06
-1.34221e-05
-6.02462e-06
-1.12231e-06
5.84428e-06
-2.81328e-06
1.23517e-05
-4.14575e-06
1.48442e-05
-4.86255e-06
1.48939e-05
-5.03227e-06
1.3639e-05
-4.83269e-06
1.17551e-05
-4.45211e-06
9.60554e-06
-4.05119e-06
7.36206e-06
-3.75325e-06
5.08416e-06
-3.6447e-06
2.76801e-06
-3.776e-06
3.74134e-07
-4.15739e-06
-2.15592e-06
-4.74771e-06
-4.88439e-06
-5.43484e-06
-7.85267e-06
-6.01355e-06
-1.10322e-05
-6.17834e-06
-1.4229e-05
-5.57333e-06
-1.69205e-05
-3.96828e-06
-1.80323e-05
-1.64629e-06
-1.57441e-05
-7.67092e-06
-1.55393e-06
7.39821e-06
-3.28929e-06
1.4087e-05
-4.08942e-06
1.56443e-05
-3.94174e-06
1.47462e-05
-3.15327e-06
1.28505e-05
-2.04998e-06
1.06518e-05
-8.94915e-07
8.45048e-06
1.21684e-07
6.34546e-06
8.68544e-07
4.3373e-06
1.25627e-06
2.38028e-06
1.22644e-06
4.03962e-07
7.49617e-07
-1.67909e-06
-1.64902e-07
-3.96987e-06
-1.4435e-06
-6.57407e-06
-2.90484e-06
-9.57085e-06
-4.20745e-06
-1.29264e-05
-4.8296e-06
-1.62984e-05
-4.18433e-06
-1.86776e-05
-2.09421e-06
-1.78342e-05
-9.76513e-06
-2.14915e-06
9.54736e-06
-3.52714e-06
1.5465e-05
-3.14849e-06
1.52657e-05
-1.58832e-06
1.3186e-05
5.10105e-07
1.07521e-05
2.69547e-06
8.4664e-06
4.68587e-06
6.46008e-06
6.31583e-06
4.71549e-06
7.48851e-06
3.16463e-06
8.14186e-06
1.72693e-06
8.22847e-06
3.17353e-07
7.70729e-06
-1.15791e-06
6.54733e-06
-2.8099e-06
4.74999e-06
-4.77673e-06
2.40177e-06
-7.22263e-06
-2.30268e-07
-1.02943e-05
-2.57096e-06
-1.39577e-05
-3.66246e-06
-1.75861e-05
-2.50943e-06
-1.89873e-05
-1.22746e-05
-2.63507e-06
1.21824e-05
-2.44028e-06
1.52702e-05
2.0056e-07
1.26249e-05
3.7397e-06
9.64689e-06
7.2946e-06
7.19723e-06
1.04645e-05
5.29652e-06
1.30858e-05
3.8387e-06
1.51058e-05
2.69559e-06
1.65141e-05
1.75627e-06
1.73074e-05
9.33592e-07
1.74697e-05
1.55134e-07
1.69627e-05
-6.50921e-07
1.57208e-05
-1.56805e-06
1.36582e-05
-2.71412e-06
1.07016e-05
-4.26598e-06
6.88582e-06
-6.47861e-06
2.56809e-06
-9.63996e-06
-1.19902e-06
-1.38189e-05
-2.4066e-06
-1.77797e-05
-1.46812e-05
-1.03783e-06
1.32203e-05
3.44172e-06
1.07907e-05
9.39081e-06
6.67576e-06
1.47623e-05
4.27535e-06
1.91358e-05
2.82373e-06
2.25426e-05
1.8898e-06
2.511e-05
1.27123e-06
2.69642e-05
8.41408e-07
2.82008e-05
5.1973e-07
2.88783e-05
2.56031e-07
2.90159e-05
1.75361e-08
2.85928e-05
-2.27757e-07
2.75345e-05
-5.09828e-07
2.57022e-05
-8.81727e-07
2.28729e-05
-1.43677e-06
1.875e-05
-2.35565e-06
1.3094e-05
-3.984e-06
6.21135e-06
-6.93627e-06
2.75694e-07
-1.1844e-05
-1.44055e-05
1.32203e-05
2.40109e-05
3.06867e-05
3.4962e-05
3.77858e-05
3.96756e-05
4.09468e-05
4.17882e-05
4.23079e-05
4.2564e-05
4.25815e-05
4.23537e-05
4.18439e-05
4.09622e-05
3.95254e-05
3.71698e-05
3.31858e-05
2.62495e-05
1.44055e-05
)
;

boundaryField
{
    movingWall
    {
        type            calculated;
        value           uniform 0;
    }
    fixedWalls
    {
        type            calculated;
        value           uniform 0;
    }
    frontAndBack
    {
        type            empty;
        value           nonuniform List<scalar> 0();
    }
}


// ************************************************************************* //
