/*--------------------------------*- C++ -*----------------------------------*\
  =========                 |
  \\      /  F ield         | OpenFOAM: The Open Source CFD Toolbox
   \\    /   O peration     | Website:  https://openfoam.org
    \\  /    A nd           | Version:  9
     \\/     M anipulation  |
\*---------------------------------------------------------------------------*/
FoamFile
{
    format      ascii;
    class       volVectorField;
    location    "0.3";
    object      U;
}
// * * * * * * * * * * * * * * * * * * * * * * * * * * * * * * * * * * * * * //

dimensions      [0 1 -1 0 0 0 0];

internalField   nonuniform List<vector> 
400
(
(0.000248214 -0.00024605 0)
(0.000121075 0.000117704 0)
(-0.00120719 0.000563232 0)
(-0.00349916 0.000873566 0)
(-0.00636263 0.001028 0)
(-0.00941474 0.00104469 0)
(-0.0123179 0.000948173 0)
(-0.0147917 0.000761981 0)
(-0.0166137 0.000507078 0)
(-0.0176197 0.000203688 0)
(-0.017707 -0.000125929 0)
(-0.0168436 -0.000455248 0)
(-0.01508 -0.00075248 0)
(-0.01256 -0.000981334 0)
(-0.0095262 -0.00110368 0)
(-0.0063155 -0.00108451 0)
(-0.00333659 -0.00089962 0)
(-0.00102485 -0.000546609 0)
(0.00023176 -7.57545e-05 0)
(0.000276781 0.000269843 0)
(-8.97086e-05 -0.000147541 0)
(-0.00165358 0.00167217 0)
(-0.00575057 0.00361401 0)
(-0.0117493 0.00499187 0)
(-0.0188584 0.00567578 0)
(-0.0262914 0.0056959 0)
(-0.0333036 0.00513709 0)
(-0.0392469 0.00410242 0)
(-0.0435977 0.00269991 0)
(-0.045971 0.00104381 0)
(-0.0461348 -0.000738496 0)
(-0.0440301 -0.00250058 0)
(-0.0397921 -0.00407595 0)
(-0.0337666 -0.00528458 0)
(-0.0265125 -0.00594858 0)
(-0.0187794 -0.0059184 0)
(-0.0114422 -0.0051107 0)
(-0.0053897 -0.00355717 0)
(-0.00141637 -0.00150033 0)
(-2.02489e-05 0.000263983 0)
(-0.000546818 0.001146 0)
(-0.0037697 0.00579659 0)
(-0.0106622 0.0102149 0)
(-0.0200205 0.0133121 0)
(-0.0307032 0.0147997 0)
(-0.0416608 0.0147014 0)
(-0.0518891 0.0131843 0)
(-0.0605022 0.0104815 0)
(-0.0667807 0.00685827 0)
(-0.0701956 0.00260674 0)
(-0.0704306 -0.00194555 0)
(-0.067408 -0.00642809 0)
(-0.0613148 -0.0104294 0)
(-0.0526222 -0.0135157 0)
(-0.0420864 -0.0152703 0)
(-0.0307177 -0.0153569 0)
(-0.0196923 -0.0136066 0)
(-0.0102096 -0.0101214 0)
(-0.00344336 -0.00542436 0)
(-0.000443346 -0.000859556 0)
(-0.000952357 0.00357799 0)
(-0.00576033 0.0123157 0)
(-0.0153702 0.0198892 0)
(-0.0279059 0.02502 0)
(-0.0418442 0.0273398 0)
(-0.0559083 0.026905 0)
(-0.0689032 0.023996 0)
(-0.0797829 0.0190098 0)
(-0.0877006 0.0124081 0)
(-0.0920326 0.00470645 0)
(-0.0924008 -0.00351743 0)
(-0.088702 -0.0116143 0)
(-0.081138 -0.0188689 0)
(-0.0702413 -0.0245315 0)
(-0.0568851 -0.0278845 0)
(-0.0422597 -0.0283471 0)
(-0.0277826 -0.0256166 0)
(-0.0149519 -0.0198257 0)
(-0.00538658 -0.011727 0)
(-0.00081904 -0.00306695 0)
(-0.00130648 0.00702622 0)
(-0.00759779 0.0210693 0)
(-0.0198205 0.0324164 0)
(-0.0354025 0.0397932 0)
(-0.0524134 0.0428792 0)
(-0.0693559 0.0418441 0)
(-0.0848785 0.0371329 0)
(-0.0978222 0.0293416 0)
(-0.107258 0.0191549 0)
(-0.112499 0.00733348 0)
(-0.113115 -0.00527377 0)
(-0.108964 -0.0177153 0)
(-0.100221 -0.0289412 0)
(-0.087426 -0.0378438 0)
(-0.0715064 -0.0433473 0)
(-0.0537836 -0.0445538 0)
(-0.0358985 -0.0409404 0)
(-0.0196783 -0.032576 0)
(-0.00726525 -0.0203392 0)
(-0.00115557 -0.00626522 0)
(-0.00163214 0.0114087 0)
(-0.00933799 0.0319647 0)
(-0.0240883 0.0477164 0)
(-0.0426134 0.0575414 0)
(-0.0625643 0.0613036 0)
(-0.082227 0.0593895 0)
(-0.10012 0.0524783 0)
(-0.115007 0.0414068 0)
(-0.125915 0.0271037 0)
(-0.132118 0.0105818 0)
(-0.13314 -0.00703836 0)
(-0.128779 -0.0245009 0)
(-0.119147 -0.0404083 0)
(-0.104731 -0.0532603 0)
(-0.0864519 -0.0615577 0)
(-0.0657151 -0.0639866 0)
(-0.0443731 -0.0596772 0)
(-0.0246198 -0.0484955 0)
(-0.00920705 -0.0313248 0)
(-0.00149144 -0.0104316 0)
(-0.0019506 0.0166863 0)
(-0.0110446 0.0449413 0)
(-0.0282679 0.0657163 0)
(-0.0496414 0.078168 0)
(-0.0723902 0.0824903 0)
(-0.0945976 0.0794079 0)
(-0.114684 0.0699186 0)
(-0.13138 0.0551466 0)
(-0.143708 0.0362798 0)
(-0.150932 0.0145755 0)
(-0.152543 -0.00859491 0)
(-0.148262 -0.0316927 0)
(-0.138094 -0.0529806 0)
(-0.122407 -0.0705423 0)
(-0.102039 -0.0823865 0)
(-0.0784098 -0.0866592 0)
(-0.0535506 -0.0819717 0)
(-0.0300472 -0.067796 0)
(-0.0113626 -0.0448628 0)
(-0.00186817 -0.0156299 0)
(-0.00227989 0.0228571 0)
(-0.0127756 0.059976 0)
(-0.0324412 0.0863466 0)
(-0.0565465 0.101542 0)
(-0.0818832 0.106253 0)
(-0.106359 0.101688 0)
(-0.128347 0.0892618 0)
(-0.146607 0.0704368 0)
(-0.160214 0.0466681 0)
(-0.16847 0.0194333 0)
(-0.170849 -0.0096906 0)
(-0.166993 -0.0389325 0)
(-0.156755 -0.0662519 0)
(-0.140307 -0.0893169 0)
(-0.118299 -0.105581 0)
(-0.0920558 -0.112508 0)
(-0.0637061 -0.107966 0)
(-0.0362194 -0.090767 0)
(-0.0138854 -0.0612584 0)
(-0.00232793 -0.0220124 0)
(-0.00263815 0.0299518 0)
(-0.014588 0.0770803 0)
(-0.0366771 0.109529 0)
(-0.0633369 0.127462 0)
(-0.0909139 0.132286 0)
(-0.11719 0.125867 0)
(-0.140574 0.110157 0)
(-0.159941 0.0870093 0)
(-0.174507 0.0581462 0)
(-0.183678 0.025221 0)
(-0.186958 -0.0100563 0)
(-0.183916 -0.0457689 0)
(-0.174219 -0.0796511 0)
(-0.157755 -0.108995 0)
(-0.134851 -0.130663 0)
(-0.106569 -0.141288 0)
(-0.0749758 -0.13772 0)
(-0.0433529 -0.117736 0)
(-0.016929 -0.0809332 0)
(-0.00291673 -0.0298194 0)
(-0.00305179 0.0380378 0)
(-0.0165598 0.096298 0)
(-0.0410542 0.135146 0)
(-0.0699783 0.1556 0)
(-0.0992231 0.160074 0)
(-0.126532 0.151328 0)
(-0.15047 0.131986 0)
(-0.170164 0.10435 0)
(-0.185085 0.0703942 0)
(-0.194842 0.0318834 0)
(-0.199041 -0.00944501 0)
(-0.19721 -0.0516572 0)
(-0.188816 -0.0923946 0)
(-0.17338 -0.128675 0)
(-0.150739 -0.156791 0)
(-0.121457 -0.17242 0)
(-0.0872759 -0.171073 0)
(-0.0515972 -0.148979 0)
(-0.0206564 -0.104398 0)
(-0.00369232 -0.0393831 0)
(-0.00357043 0.0472416 0)
(-0.018827 0.117716 0)
(-0.0456989 0.163009 0)
(-0.0764083 0.185414 0)
(-0.106401 0.188783 0)
(-0.133534 0.177071 0)
(-0.15672 0.153738 0)
(-0.17551 0.12158 0)
(-0.189788 0.082793 0)
(-0.199494 0.0391586 0)
(-0.20443 -0.00769407 0)
(-0.204153 -0.0559868 0)
(-0.197946 -0.103464 0)
(-0.184907 -0.147056 0)
(-0.164215 -0.182604 0)
(-0.135634 -0.204783 0)
(-0.100181 -0.207439 0)
(-0.060996 -0.184579 0)
(-0.0252549 -0.132206 0)
(-0.00473827 -0.0511453 0)
(-0.00429331 0.0578048 0)
(-0.021641 0.141491 0)
(-0.0508263 0.192802 0)
(-0.0825231 0.216029 0)
(-0.111818 0.217108 0)
(-0.136951 0.201571 0)
(-0.157459 0.173879 0)
(-0.173552 0.137346 0)
(-0.185704 0.0943212 0)
(-0.194323 0.0464843 0)
(-0.199528 -0.00480823 0)
(-0.201003 -0.058143 0)
(-0.197916 -0.111623 0)
(-0.188941 -0.162381 0)
(-0.172472 -0.206068 0)
(-0.147152 -0.236468 0)
(-0.112724 -0.245516 0)
(-0.071408 -0.224197 0)
(-0.0309558 -0.164881 0)
(-0.00618833 -0.0656954 0)
(-0.00541659 0.0701951 0)
(-0.0254483 0.167888 0)
(-0.0567494 0.22397 0)
(-0.088069 0.246043 0)
(-0.114417 0.243063 0)
(-0.134893 0.222594 0)
(-0.150049 0.190219 0)
(-0.161019 0.149723 0)
(-0.169041 0.103482 0)
(-0.175112 0.0529228 0)
(-0.179772 -0.00104922 0)
(-0.182951 -0.0576064 0)
(-0.183829 -0.115502 0)
(-0.180759 -0.172452 0)
(-0.171339 -0.224365 0)
(-0.152831 -0.264498 0)
(-0.123066 -0.282885 0)
(-0.0823344 -0.2667 0)
(-0.0380458 -0.202765 0)
(-0.00826732 -0.0838476 0)
(-0.00731252 0.0853034 0)
(-0.0309786 0.197271 0)
(-0.0637623 0.255459 0)
(-0.0922847 0.273176 0)
(-0.112221 0.263694 0)
(-0.124313 0.237023 0)
(-0.13063 0.199844 0)
(-0.133481 0.156212 0)
(-0.134962 0.108321 0)
(-0.136693 0.0571517 0)
(-0.139678 0.00299838 0)
(-0.14419 -0.0540823 0)
(-0.149605 -0.113765 0)
(-0.154192 -0.174776 0)
(-0.154954 -0.233899 0)
(-0.147745 -0.2846 0)
(-0.127931 -0.315513 0)
(-0.092539 -0.309567 0)
(-0.0468158 -0.245704 0)
(-0.011346 -0.106755 0)
(-0.0106278 0.104742 0)
(-0.0392277 0.229909 0)
(-0.0716183 0.285151 0)
(-0.0929496 0.293716 0)
(-0.101231 0.274732 0)
(-0.100008 0.240762 0)
(-0.0933588 0.1992 0)
(-0.0848564 0.153931 0)
(-0.0773534 0.106621 0)
(-0.0729436 0.057605 0)
(-0.0730009 0.00645166 0)
(-0.0781657 -0.0476317 0)
(-0.0881987 -0.105394 0)
(-0.101667 -0.166928 0)
(-0.115498 -0.230595 0)
(-0.124564 -0.291196 0)
(-0.121655 -0.337254 0)
(-0.0991931 -0.347995 0)
(-0.0572366 -0.292357 0)
(-0.0159469 -0.136004 0)
(-0.0162427 0.131309 0)
(-0.0508618 0.265218 0)
(-0.0778418 0.308638 0)
(-0.0841248 0.301659 0)
(-0.07327 0.27031 0)
(-0.052913 0.228915 0)
(-0.0292526 0.184554 0)
(-0.0067713 0.140159 0)
(0.0113952 0.0964237 0)
(0.0231045 0.0528577 0)
(0.0269124 0.00831456 0)
(0.0219268 -0.0387476 0)
(0.00787192 -0.0900625 0)
(-0.0145769 -0.147189 0)
(-0.0431127 -0.210632 0)
(-0.0727514 -0.277871 0)
(-0.0946089 -0.339564 0)
(-0.0960017 -0.373662 0)
(-0.067756 -0.338867 0)
(-0.0224099 -0.173744 0)
(-0.0244349 0.170007 0)
(-0.063604 0.29951 0)
(-0.0730542 0.31646 0)
(-0.0513075 0.28724 0)
(-0.0122236 0.24283 0)
(0.0323258 0.196448 0)
(0.0751165 0.15296 0)
(0.111934 0.113331 0)
(0.140341 0.0768807 0)
(0.158868 0.0422767 0)
(0.166487 0.00786315 0)
(0.16233 -0.0283019 0)
(0.14563 -0.0685075 0)
(0.115935 -0.115409 0)
(0.0737939 -0.171669 0)
(0.0222277 -0.238488 0)
(-0.0307814 -0.311598 0)
(-0.0695102 -0.373008 0)
(-0.0720398 -0.376304 0)
(-0.0293652 -0.223122 0)
(-0.0304254 0.226682 0)
(-0.0634788 0.319394 0)
(-0.0296899 0.289759 0)
(0.0375711 0.236301 0)
(0.111286 0.184539 0)
(0.179717 0.140464 0)
(0.238119 0.104407 0)
(0.284703 0.0747491 0)
(0.319037 0.049515 0)
(0.341109 0.0268763 0)
(0.350791 0.00513605 0)
(0.347578 -0.0174686 0)
(0.330438 -0.0430358 0)
(0.29778 -0.0743643 0)
(0.247781 -0.11527 0)
(0.179542 -0.170351 0)
(0.0956637 -0.242648 0)
(0.00761718 -0.326168 0)
(-0.0512217 -0.384144 0)
(-0.0281207 -0.283339 0)
(0.00229511 0.274028 0)
(0.00915854 0.285877 0)
(0.123154 0.206601 0)
(0.24441 0.143728 0)
(0.343273 0.100077 0)
(0.420623 0.0697197 0)
(0.479869 0.0483657 0)
(0.523689 0.0328116 0)
(0.5543 0.0207814 0)
(0.573279 0.0107163 0)
(0.581428 0.00146635 0)
(0.578758 -0.00798562 0)
(0.564357 -0.0188613 0)
(0.536147 -0.0329463 0)
(0.490575 -0.0532561 0)
(0.42246 -0.084998 0)
(0.324707 -0.136399 0)
(0.191147 -0.21705 0)
(0.0515211 -0.318656 0)
(0.0227763 -0.310026 0)
(0.294219 0.14476 0)
(0.385829 0.126861 0)
(0.543919 0.0771279 0)
(0.66086 0.0455517 0)
(0.732016 0.0274351 0)
(0.777581 0.0167937 0)
(0.808261 0.0103944 0)
(0.828894 0.00637621 0)
(0.842209 0.00364955 0)
(0.849806 0.0015891 0)
(0.852493 -0.000185478 0)
(0.850455 -0.00194342 0)
(0.843282 -0.00401368 0)
(0.829774 -0.00689324 0)
(0.80738 -0.011563 0)
(0.771056 -0.0201049 0)
(0.709337 -0.0368953 0)
(0.596307 -0.0702993 0)
(0.42458 -0.127439 0)
(0.312515 -0.151331 0)
)
;

boundaryField
{
    movingWall
    {
        type            fixedValue;
        value           uniform (1 0 0);
    }
    fixedWalls
    {
        type            noSlip;
    }
    frontAndBack
    {
        type            empty;
    }
}


// ************************************************************************* //
