/*--------------------------------*- C++ -*----------------------------------*\
  =========                 |
  \\      /  F ield         | OpenFOAM: The Open Source CFD Toolbox
   \\    /   O peration     | Website:  https://openfoam.org
    \\  /    A nd           | Version:  9
     \\/     M anipulation  |
\*---------------------------------------------------------------------------*/
FoamFile
{
    format      ascii;
    class       volScalarField;
    location    "0.2";
    object      p;
}
// * * * * * * * * * * * * * * * * * * * * * * * * * * * * * * * * * * * * * //

dimensions      [0 2 -2 0 0 0 0];

internalField   nonuniform List<scalar> 
400
(
1.54823e-07
-0.00288066
-0.00635112
-0.00896847
-0.00991784
-0.00884225
-0.00571162
-0.000720322
0.00577811
0.013307
0.0212913
0.0290854
0.0360162
0.041446
0.0448576
0.045957
0.0447879
0.0418423
0.0381399
0.0352704
0.00285474
-0.000115348
-0.00282324
-0.00460437
-0.00508636
-0.004023
-0.00137642
0.00271922
0.00800175
0.0141045
0.0205753
0.0269024
0.0325518
0.0370222
0.0399135
0.0410057
0.0403429
0.0382783
0.0353716
0.0324375
0.00653195
0.00242305
-0.000493468
-0.00211511
-0.00249618
-0.00151763
0.000823712
0.00440519
0.0090105
0.0143387
0.0200118
0.0255922
0.0306141
0.0346297
0.0372687
0.038306
0.0377376
0.035788
0.0326156
0.0285263
0.0097578
0.00410845
0.00050526
-0.00133251
-0.00181902
-0.000949348
0.0012314
0.00458786
0.00892187
0.0139677
0.0193863
0.0247725
0.0296776
0.0336504
0.0362904
0.0373145
0.0366431
0.0343894
0.0303986
0.0246783
0.0116608
0.00441637
1.5947e-06
-0.00216176
-0.00279829
-0.00199996
0.000142772
0.00347706
0.00781331
0.0129078
0.0184436
0.024026
0.0291967
0.0334677
0.0363721
0.0375348
0.0367787
0.0341111
0.0291115
0.0215932
0.0115804
0.00275895
-0.00248694
-0.00498556
-0.00573974
-0.00492478
-0.00267074
0.000852948
0.00546239
0.0109299
0.0169513
0.0231291
0.028976
0.0339414
0.0374592
0.0390262
0.0383388
0.0352864
0.0291955
0.0197404
0.00894604
-0.00143143
-0.00747892
-0.0102572
-0.0110374
-0.0100731
-0.00753003
-0.0035908
0.00156874
0.00773818
0.0146253
0.0218255
0.0288115
0.0349493
0.0395412
0.0419136
0.0415912
0.0383086
0.031106
0.0195277
0.00318995
-0.00873647
-0.0155186
-0.01846
-0.0191157
-0.0178243
-0.014787
-0.0101951
-0.00420864
0.0029889
0.0111273
0.0198018
0.0284458
0.0363294
0.0425926
0.0463395
0.0468581
0.0436561
0.0353943
0.0214474
-0.00631371
-0.0198026
-0.0272124
-0.0301287
-0.0304378
-0.0285851
-0.0248128
-0.0193162
-0.0122264
-0.00368094
0.00609408
0.0167157
0.0275934
0.0379024
0.0465956
0.0524969
0.0545671
0.0519698
0.0428164
0.0262096
-0.0202975
-0.0353864
-0.0432503
-0.0458423
-0.0454737
-0.0427388
-0.0379347
-0.0312557
-0.0227848
-0.0125844
-0.000800681
0.0122448
0.0259741
0.0394903
0.0515508
0.0606426
0.0652865
0.0641275
0.0544509
0.0348874
-0.0396701
-0.0564178
-0.0644299
-0.0662014
-0.0646393
-0.0605581
-0.0543315
-0.0461456
-0.0360086
-0.0238678
-0.00973797
0.00618042
0.023386
0.0409653
0.0575055
0.0711202
0.0797669
0.0813343
0.0718546
0.0491144
-0.0656555
-0.0841105
-0.0916906
-0.0917876
-0.0882031
-0.0820781
-0.0738864
-0.0637903
-0.0516846
-0.0373474
-0.0205948
-0.00142682
0.0198286
0.0423426
0.0646142
0.0844008
0.0989952
0.105238
0.0972815
0.0713955
-0.100099
-0.120161
-0.126157
-0.123089
-0.116144
-0.106921
-0.0959996
-0.0834766
-0.0690716
-0.0523212
-0.032761
-0.0100914
0.0156606
0.0439063
0.0732235
0.101135
0.124253
0.138067
0.134006
0.105647
-0.146159
-0.167102
-0.169166
-0.160349
-0.147932
-0.134067
-0.119374
-0.103785
-0.0867336
-0.0674188
-0.0450004
-0.0187567
0.0117252
0.0463088
0.0839258
0.122158
0.157114
0.182758
0.186807
0.158224
-0.209819
-0.228866
-0.222149
-0.203205
-0.182149
-0.161543
-0.1418
-0.122456
-0.102479
-0.0805856
-0.0554492
-0.0258231
0.00930951
0.0505069
0.0974408
0.148291
0.199218
0.2429
0.262601
0.239833
-0.302762
-0.311474
-0.286237
-0.250118
-0.216023
-0.186143
-0.160066
-0.136471
-0.11356
-0.08937
-0.0619759
-0.0295081
0.00978645
0.0574067
0.114239
0.179894
0.251742
0.322271
0.370806
0.368246
-0.447818
-0.423411
-0.361586
-0.298027
-0.245381
-0.20365
-0.170415
-0.142679
-0.117389
-0.0916976
-0.0629703
-0.0286569
0.0138161
0.0671074
0.133857
0.216246
0.314678
0.423808
0.523113
0.572645
-0.699029
-0.574638
-0.44276
-0.339314
-0.263142
-0.208379
-0.168785
-0.138433
-0.112452
-0.0869422
-0.0585729
-0.0241677
0.0196153
0.076714
0.152058
0.251797
0.381861
0.544077
0.733965
0.915855
-1.20544
-0.76755
-0.494403
-0.342704
-0.24753
-0.186357
-0.146877
-0.119413
-0.0972305
-0.0757026
-0.0512272
-0.0204072
0.0203645
0.0758609
0.153114
0.263054
0.420762
0.648931
1.01105
1.55365
-2.1019
-0.95773
-0.447146
-0.261255
-0.172297
-0.124158
-0.0985002
-0.0835271
-0.0720942
-0.0599732
-0.0441582
-0.022057
0.00944929
0.0544883
0.120069
0.219543
0.378746
0.661728
1.28708
2.54733
)
;

boundaryField
{
    movingWall
    {
        type            zeroGradient;
    }
    fixedWalls
    {
        type            zeroGradient;
    }
    frontAndBack
    {
        type            empty;
    }
}


// ************************************************************************* //
