/*--------------------------------*- C++ -*----------------------------------*\
  =========                 |
  \\      /  F ield         | OpenFOAM: The Open Source CFD Toolbox
   \\    /   O peration     | Website:  https://openfoam.org
    \\  /    A nd           | Version:  9
     \\/     M anipulation  |
\*---------------------------------------------------------------------------*/
FoamFile
{
    format      ascii;
    class       surfaceScalarField;
    location    "0.2";
    object      phi;
}
// * * * * * * * * * * * * * * * * * * * * * * * * * * * * * * * * * * * * * //

dimensions      [0 3 -1 0 0 0 0];

internalField   nonuniform List<scalar> 
760
(
1.34549e-08
-1.34574e-08
-2.3417e-08
3.68708e-08
-1.14353e-07
9.09366e-08
-2.42844e-07
1.28491e-07
-3.89767e-07
1.46924e-07
-5.37416e-07
1.4765e-07
-6.70637e-07
1.3322e-07
-7.77101e-07
1.06464e-07
-8.47299e-07
7.01983e-08
-8.74629e-07
2.7329e-08
-8.55715e-07
-1.89145e-08
-7.90932e-07
-6.47831e-08
-6.84981e-07
-1.05951e-07
-5.47319e-07
-1.37662e-07
-3.92197e-07
-1.55122e-07
-2.38028e-07
-1.54168e-07
-1.05775e-07
-1.32253e-07
-1.60851e-08
-8.96899e-08
1.63227e-08
-3.24082e-08
1.63228e-08
-3.50961e-08
2.16396e-08
-1.80802e-07
1.82578e-07
-4.31011e-07
3.41144e-07
-7.55061e-07
4.52542e-07
-1.11478e-06
5.06641e-07
-1.47202e-06
5.04891e-07
-1.79241e-06
4.53609e-07
-2.04711e-06
3.61166e-07
-2.21372e-06
2.36809e-07
-2.27698e-06
9.05818e-08
-2.2296e-06
-6.62877e-08
-2.07336e-06
-2.21031e-07
-1.81997e-06
-3.5934e-07
-1.49165e-06
-4.65978e-07
-1.12064e-06
-5.26137e-07
-7.47152e-07
-5.27655e-07
-4.15279e-07
-4.64127e-07
-1.66262e-07
-3.38706e-07
-2.85552e-08
-1.70115e-07
-1.22321e-08
-9.28874e-08
1.14527e-07
-3.56028e-07
4.45719e-07
-7.57837e-07
7.42954e-07
-1.25224e-06
9.46941e-07
-1.78707e-06
1.04147e-06
-2.31077e-06
1.0286e-06
-2.77659e-06
9.19425e-07
-3.14499e-06
7.29567e-07
-3.38516e-06
4.76978e-07
-3.47616e-06
1.81581e-07
-3.40814e-06
-1.34309e-07
-3.18363e-06
-4.45536e-07
-2.81872e-06
-7.24252e-07
-2.34355e-06
-9.41142e-07
-1.80166e-06
-1.06803e-06
-1.24726e-06
-1.08205e-06
-7.40069e-07
-9.71318e-07
-3.37334e-07
-7.4144e-07
-8.35661e-08
-4.23883e-07
-9.57979e-08
-1.45737e-07
2.60264e-07
-5.22889e-07
8.22872e-07
-1.07055e-06
1.29062e-06
-1.72351e-06
1.5999e-06
-2.41577e-06
1.73373e-06
-3.08494e-06
1.69777e-06
-3.67547e-06
1.50996e-06
-4.14075e-06
1.19484e-06
-4.44444e-06
7.80664e-07
-4.56169e-06
2.98834e-07
-4.48046e-06
-2.15537e-07
-4.20298e-06
-7.23019e-07
-3.74718e-06
-1.18006e-06
-3.1476e-06
-1.54072e-06
-2.4551e-06
-1.76053e-06
-1.73444e-06
-1.80271e-06
-1.05923e-06
-1.64653e-06
-5.03987e-07
-1.29668e-06
-1.34554e-07
-7.93315e-07
-2.30352e-07
-1.93817e-07
4.5408e-07
-6.79896e-07
1.30895e-06
-1.36823e-06
1.97895e-06
-2.17267e-06
2.40434e-06
-3.01282e-06
2.57388e-06
-3.81647e-06
2.50141e-06
-4.52127e-06
2.21477e-06
-5.07576e-06
1.74933e-06
-5.43996e-06
1.14487e-06
-5.58616e-06
4.45033e-07
-5.49999e-06
-3.01709e-07
-5.18204e-06
-1.04097e-06
-4.64976e-06
-1.71233e-06
-3.9392e-06
-2.25128e-06
-3.10579e-06
-2.59394e-06
-2.22324e-06
-2.68526e-06
-1.37938e-06
-2.49039e-06
-6.68773e-07
-2.00729e-06
-1.82801e-07
-1.27929e-06
-4.13154e-07
-2.39211e-07
6.93291e-07
-8.30577e-07
1.90032e-06
-1.65563e-06
2.804e-06
-2.60648e-06
3.35519e-06
-3.58803e-06
3.55543e-06
-4.51895e-06
3.43233e-06
-5.33163e-06
3.02745e-06
-5.97156e-06
2.38927e-06
-6.39665e-06
1.56995e-06
-6.57703e-06
6.25412e-07
-6.49572e-06
-3.83015e-07
-6.15024e-06
-1.38645e-06
-5.55513e-06
-2.30745e-06
-4.74498e-06
-3.06143e-06
-3.77716e-06
-3.56176e-06
-2.73286e-06
-3.72956e-06
-1.71486e-06
-3.50839e-06
-8.40864e-07
-2.88128e-06
-2.32291e-07
-1.88786e-06
-6.45445e-07
-2.83925e-07
9.77215e-07
-9.79028e-07
2.59542e-06
-1.93783e-06
3.7628e-06
-3.02999e-06
4.44735e-06
-4.14575e-06
4.67119e-06
-5.19579e-06
4.48237e-06
-6.10908e-06
3.94074e-06
-6.83013e-06
3.11031e-06
-7.31646e-06
2.05629e-06
-7.53708e-06
8.4603e-07
-7.47224e-06
-4.47861e-07
-7.11491e-06
-1.74378e-06
-6.47403e-06
-2.94833e-06
-5.57919e-06
-3.95627e-06
-4.48608e-06
-4.65486e-06
-3.28088e-06
-4.93477e-06
-2.08119e-06
-4.70808e-06
-1.03092e-06
-3.93155e-06
-2.87366e-07
-2.63142e-06
-9.3281e-07
-3.29652e-07
1.30687e-06
-1.12879e-06
3.39456e-06
-2.21841e-06
4.85242e-06
-3.44443e-06
5.67338e-06
-4.68293e-06
5.90969e-06
-5.8385e-06
5.63794e-06
-6.83945e-06
4.9417e-06
-7.63228e-06
3.90314e-06
-8.17672e-06
2.60072e-06
-8.44227e-06
1.11159e-06
-8.40682e-06
-4.83313e-07
-8.05758e-06
-2.09302e-06
-7.39488e-06
-3.61103e-06
-6.43881e-06
-4.91234e-06
-5.238e-06
-5.85568e-06
-3.87888e-06
-6.29388e-06
-2.4918e-06
-6.09516e-06
-1.24936e-06
-5.17399e-06
-3.52348e-07
-3.52843e-06
-1.28516e-06
-3.78006e-07
1.68487e-06
-1.283e-06
4.29955e-06
-2.49915e-06
6.06858e-06
-3.84648e-06
7.0207e-06
-5.18789e-06
7.2511e-06
-6.4251e-06
6.87515e-06
-7.49001e-06
6.00661e-06
-8.33546e-06
4.74859e-06
-8.92721e-06
3.19247e-06
-9.23811e-06
1.42248e-06
-9.24494e-06
-4.76475e-07
-8.92853e-06
-2.40943e-06
-8.27761e-06
-4.26195e-06
-7.29715e-06
-5.8928e-06
-6.02113e-06
-7.1317e-06
-4.52815e-06
-7.78686e-06
-2.95567e-06
-7.66764e-06
-1.50556e-06
-6.62411e-06
-4.31615e-07
-4.60237e-06
-1.71677e-06
-4.31199e-07
2.11607e-06
-1.4455e-06
5.31386e-06
-2.78095e-06
7.40403e-06
-4.2283e-06
8.46805e-06
-5.63943e-06
8.66223e-06
-6.91839e-06
8.1541e-06
-8.00698e-06
7.0952e-06
-8.8706e-06
5.61221e-06
-9.48646e-06
3.80833e-06
-9.83495e-06
1.77097e-06
-9.89441e-06
-4.17014e-07
-9.63972e-06
-2.66412e-06
-9.04551e-06
-4.85615e-06
-8.09551e-06
-6.84281e-06
-6.79901e-06
-8.4282e-06
-5.21427e-06
-9.37161e-06
-3.47464e-06
-9.40727e-06
-1.80758e-06
-8.29117e-06
-5.30036e-07
-5.87991e-06
-2.24681e-06
-4.93264e-07
2.60934e-06
-1.62286e-06
6.44345e-06
-3.06513e-06
8.8463e-06
-4.57744e-06
9.98036e-06
-6.00514e-06
1.00899e-05
-7.26304e-06
9.412e-06
-8.31198e-06
8.14414e-06
-9.13822e-06
6.43844e-06
-9.73737e-06
4.40749e-06
-1.0103e-05
2.13661e-06
-1.02192e-05
-3.0085e-07
-1.00569e-05
-2.82637e-06
-9.57584e-06
-5.33725e-06
-8.73268e-06
-7.68596e-06
-7.50039e-06
-9.66049e-06
-5.89937e-06
-1.09726e-05
-4.0395e-06
-1.12671e-05
-2.16168e-06
-1.0169e-05
-6.53736e-07
-7.38785e-06
-2.90054e-06
-5.72071e-07
3.18141e-06
-1.82696e-06
7.69835e-06
-3.35423e-06
1.03736e-05
-4.87471e-06
1.15008e-05
-6.23691e-06
1.14521e-05
-7.37991e-06
1.0555e-05
-8.29622e-06
9.06045e-06
-9.00315e-06
7.14537e-06
-9.52272e-06
4.92706e-06
-9.86806e-06
2.48196e-06
-1.00343e-05
-1.34623e-07
-9.9929e-06
-2.86776e-06
-9.69012e-06
-5.64003e-06
-9.05268e-06
-8.3234e-06
-8.00584e-06
-1.07073e-05
-6.51046e-06
-1.2468e-05
-4.62301e-06
-1.31546e-05
-2.571e-06
-1.2221e-05
-8.11376e-07
-9.14747e-06
-3.71192e-06
-6.82627e-07
3.86404e-06
-2.07753e-06
9.09325e-06
-3.64965e-06
1.19457e-05
-5.08647e-06
1.29377e-05
-6.25982e-06
1.26255e-05
-7.15421e-06
1.14494e-05
-7.81016e-06
9.71641e-06
-8.28703e-06
7.62225e-06
-8.64047e-06
5.28049e-06
-8.90879e-06
2.75028e-06
-9.10373e-06
6.03161e-08
-9.20339e-06
-2.7681e-06
-9.14645e-06
-5.69697e-06
-8.83188e-06
-8.63797e-06
-8.13058e-06
-1.14086e-05
-6.92163e-06
-1.3677e-05
-5.16721e-06
-1.4909e-05
-3.03171e-06
-1.43565e-05
-1.01606e-06
-1.11631e-05
-4.72798e-06
-8.521e-07
4.71614e-06
-2.40186e-06
1.0643e-05
-3.93971e-06
1.34835e-05
-5.14315e-06
1.41411e-05
-5.94677e-06
1.34291e-05
-6.41169e-06
1.19143e-05
-6.64491e-06
9.94963e-06
-6.75643e-06
7.73377e-06
-6.83871e-06
5.36277e-06
-6.95706e-06
2.86863e-06
-7.14352e-06
2.46769e-07
-7.3895e-06
-2.52211e-06
-7.6368e-06
-5.44967e-06
-7.76777e-06
-8.507e-06
-7.60351e-06
-1.15729e-05
-6.92693e-06
-1.43535e-05
-5.5594e-06
-1.62765e-05
-3.52238e-06
-1.63935e-05
-1.28726e-06
-1.33982e-05
-6.01524e-06
-1.12501e-06
5.84115e-06
-2.82196e-06
1.23399e-05
-4.1623e-06
1.48239e-05
-4.88781e-06
1.48666e-05
-5.06625e-06
1.36076e-05
-4.87471e-06
1.17228e-05
-4.50093e-06
9.57585e-06
-4.10509e-06
7.33793e-06
-3.8102e-06
5.06788e-06
-3.70242e-06
2.76085e-06
-3.83212e-06
3.7647e-07
-4.20965e-06
-2.14459e-06
-4.79403e-06
-4.86528e-06
-5.47357e-06
-7.82746e-06
-6.0436e-06
-1.10029e-05
-6.19941e-06
-1.41977e-05
-5.58603e-06
-1.68899e-05
-3.9742e-06
-1.80054e-05
-1.64782e-06
-1.57246e-05
-7.66306e-06
-1.55621e-06
7.39735e-06
-3.2969e-06
1.40806e-05
-4.1044e-06
1.56314e-05
-3.96526e-06
1.47275e-05
-3.18569e-06
1.2828e-05
-2.09094e-06
1.0628e-05
-9.43392e-07
8.4283e-06
6.72944e-08
6.32724e-06
8.10372e-07
4.3248e-06
1.19666e-06
2.37456e-06
1.16786e-06
4.05266e-07
6.9449e-07
-1.67122e-06
-2.14378e-07
-3.95641e-06
-1.4855e-06
-6.55634e-06
-2.93808e-06
-9.55028e-06
-4.23135e-06
-1.29045e-05
-4.84449e-06
-1.62768e-05
-4.19158e-06
-1.86583e-05
-2.0962e-06
-1.782e-05
-9.75926e-06
-2.1506e-06
9.54795e-06
-3.53254e-06
1.54626e-05
-3.1599e-06
1.52587e-05
-1.60723e-06
1.31748e-05
4.82888e-07
1.07379e-05
2.65992e-06
8.451e-06
4.64272e-06
6.4455e-06
6.26652e-06
4.70345e-06
7.43496e-06
3.15636e-06
8.08638e-06
1.72313e-06
8.1735e-06
3.18148e-07
7.65519e-06
-1.1529e-06
6.50019e-06
-2.80142e-06
4.70957e-06
-4.76571e-06
2.36932e-06
-7.21003e-06
-2.54079e-07
-1.02811e-05
-2.5862e-06
-1.39446e-05
-3.67016e-06
-1.75743e-05
-2.51167e-06
-1.89785e-05
-1.22709e-05
-2.6355e-06
1.21835e-05
-2.44288e-06
1.527e-05
1.93812e-07
1.2622e-05
3.7271e-06
9.6415e-06
7.275e-06
7.18997e-06
1.04375e-05
5.28849e-06
1.30519e-05
3.83106e-06
1.50661e-05
2.68931e-06
1.64704e-05
1.75204e-06
1.72618e-05
9.31763e-07
1.74242e-05
1.55712e-07
1.69195e-05
-6.48195e-07
1.56817e-05
-1.56364e-06
1.36246e-05
-2.70858e-06
1.06744e-05
-4.25986e-06
6.86568e-06
-6.47234e-06
2.55494e-06
-9.6339e-06
-1.20586e-06
-1.38135e-05
-2.4087e-06
-1.77756e-05
-1.46796e-05
-1.03742e-06
1.32209e-05
3.44158e-06
1.0791e-05
9.38847e-06
6.67516e-06
1.47562e-05
4.2738e-06
1.91246e-05
2.82149e-06
2.25258e-05
1.8873e-06
2.5088e-05
1.26888e-06
2.69378e-05
8.39534e-07
2.81713e-05
5.18547e-07
2.88474e-05
2.5563e-07
2.89852e-05
1.78625e-08
2.85638e-05
-2.26783e-07
2.75086e-05
-5.0841e-07
2.56801e-05
-8.80061e-07
2.28553e-05
-1.43503e-06
1.87369e-05
-2.35398e-06
1.30855e-05
-3.98247e-06
6.20689e-06
-6.93494e-06
2.74343e-07
-1.18431e-05
-1.44053e-05
1.32209e-05
2.40118e-05
3.0687e-05
3.49608e-05
3.77823e-05
3.96696e-05
4.09385e-05
4.1778e-05
4.22966e-05
4.25522e-05
4.25701e-05
4.23433e-05
4.18349e-05
4.09548e-05
3.95198e-05
3.71658e-05
3.31833e-05
2.62484e-05
1.44053e-05
)
;

boundaryField
{
    movingWall
    {
        type            calculated;
        value           uniform 0;
    }
    fixedWalls
    {
        type            calculated;
        value           uniform 0;
    }
    frontAndBack
    {
        type            empty;
        value           nonuniform List<scalar> 0();
    }
}


// ************************************************************************* //
