/*--------------------------------*- C++ -*----------------------------------*\
  =========                 |
  \\      /  F ield         | OpenFOAM: The Open Source CFD Toolbox
   \\    /   O peration     | Website:  https://openfoam.org
    \\  /    A nd           | Version:  9
     \\/     M anipulation  |
\*---------------------------------------------------------------------------*/
FoamFile
{
    format      ascii;
    class       volVectorField;
    location    "0.2";
    object      U;
}
// * * * * * * * * * * * * * * * * * * * * * * * * * * * * * * * * * * * * * //

dimensions      [0 1 -1 0 0 0 0];

internalField   nonuniform List<vector> 
400
(
(0.000244914 -0.000242227 0)
(0.000118388 0.00011739 0)
(-0.00119518 0.000557481 0)
(-0.00346016 0.000863796 0)
(-0.00628924 0.00101615 0)
(-0.00930446 0.00103253 0)
(-0.0121728 0.000937193 0)
(-0.0146174 0.00075335 0)
(-0.016419 0.000501696 0)
(-0.0174155 0.000202155 0)
(-0.0175052 -0.000123371 0)
(-0.0166561 -0.000448788 0)
(-0.0149174 -0.000742782 0)
(-0.0124301 -0.000969523 0)
(-0.00943324 -0.00109128 0)
(-0.00625899 -0.00107329 0)
(-0.00331126 -0.000891366 0)
(-0.00102119 -0.000542766 0)
(0.000225991 -7.6773e-05 0)
(0.000273195 0.000266273 0)
(-8.88171e-05 -0.000143888 0)
(-0.00163395 0.00165385 0)
(-0.00568102 0.00357153 0)
(-0.011606 0.00493171 0)
(-0.0186272 0.00560675 0)
(-0.0259686 0.00562671 0)
(-0.0328954 0.00507549 0)
(-0.0387682 0.00405481 0)
(-0.0430704 0.00267114 0)
(-0.045422 0.00103694 0)
(-0.0455931 -0.000722511 0)
(-0.0435243 -0.00246313 0)
(-0.0393473 -0.00402088 0)
(-0.0334015 -0.00521797 0)
(-0.0262372 -0.00587828 0)
(-0.0185939 -0.00585315 0)
(-0.0113364 -0.00505893 0)
(-0.0053446 -0.00352539 0)
(-0.00140734 -0.00149077 0)
(-2.14277e-05 0.00025819 0)
(-0.000539793 0.00113323 0)
(-0.00372281 0.00572722 0)
(-0.0105311 0.0100908 0)
(-0.0197756 0.013149 0)
(-0.0303287 0.0146179 0)
(-0.0411543 0.0145219 0)
(-0.0512612 0.0130261 0)
(-0.0597753 0.0103606 0)
(-0.0659866 0.00678655 0)
(-0.0693724 0.00259156 0)
(-0.0696192 -0.00190231 0)
(-0.066648 -0.00633041 0)
(-0.0606412 -0.0102872 0)
(-0.0520612 -0.013344 0)
(-0.0416528 -0.0150882 0)
(-0.0304131 -0.0151852 0)
(-0.0195053 -0.0134651 0)
(-0.0101173 -0.0100251 0)
(-0.00341427 -0.00537946 0)
(-0.000440234 -0.000856722 0)
(-0.000940404 0.00353461 0)
(-0.00569114 0.012167 0)
(-0.0151894 0.0196487 0)
(-0.027581 0.0247168 0)
(-0.04136 0.0270089 0)
(-0.055265 0.0265822 0)
(-0.0681155 0.0237139 0)
(-0.0788787 0.0187959 0)
(-0.0867181 0.0122829 0)
(-0.0910169 0.00468212 0)
(-0.0914 -0.0034382 0)
(-0.0877624 -0.0114389 0)
(-0.0803003 -0.0186147 0)
(-0.0695367 -0.0242247 0)
(-0.0563319 -0.0275574 0)
(-0.0418621 -0.0280349 0)
(-0.0275297 -0.0253526 0)
(-0.01482 -0.0196361 0)
(-0.00534042 -0.0116247 0)
(-0.00081231 -0.00304489 0)
(-0.00129141 0.00694192 0)
(-0.0075146 0.0208213 0)
(-0.0196091 0.0320362 0)
(-0.0350296 0.0393269 0)
(-0.0518657 0.0423784 0)
(-0.0686358 0.0413603 0)
(-0.0840037 0.0367132 0)
(-0.0968234 0.0290253 0)
(-0.106176 0.0189714 0)
(-0.111382 0.00729986 0)
(-0.112015 -0.00515427 0)
(-0.107928 -0.0174538 0)
(-0.0992931 -0.0285631 0)
(-0.0866391 -0.0373866 0)
(-0.0708819 -0.0428571 0)
(-0.0533277 -0.0440809 0)
(-0.0356027 -0.040533 0)
(-0.0195199 -0.0322728 0)
(-0.00720763 -0.020163 0)
(-0.00114647 -0.00621607 0)
(-0.00161598 0.0112783 0)
(-0.00925061 0.0316078 0)
(-0.0238691 0.0471865 0)
(-0.0422307 0.0569033 0)
(-0.0620066 0.060626 0)
(-0.0814983 0.0587398 0)
(-0.0992383 0.0519177 0)
(-0.114004 0.0409863 0)
(-0.12483 0.0268609 0)
(-0.130998 0.0105384 0)
(-0.132034 -0.00687862 0)
(-0.127734 -0.0241529 0)
(-0.118207 -0.0399048 0)
(-0.103928 -0.0526495 0)
(-0.0858085 -0.0608991 0)
(-0.0652399 -0.0633453 0)
(-0.0440605 -0.0591163 0)
(-0.0244498 -0.0480679 0)
(-0.00914403 -0.0310653 0)
(-0.00148119 -0.0103508 0)
(-0.00193544 0.0165101 0)
(-0.0109634 0.0444777 0)
(-0.0280653 0.0650414 0)
(-0.0492892 0.0773649 0)
(-0.0718787 0.0816441 0)
(-0.0939307 0.0786008 0)
(-0.113878 0.0692245 0)
(-0.130463 0.054627 0)
(-0.142716 0.0359799 0)
(-0.149906 0.014521 0)
(-0.151526 -0.0083997 0)
(-0.147297 -0.0312658 0)
(-0.13722 -0.052361 0)
(-0.121654 -0.0697877 0)
(-0.101429 -0.081568 0)
(-0.0779545 -0.0858551 0)
(-0.0532474 -0.0812596 0)
(-0.0298802 -0.0672433 0)
(-0.0112999 -0.044518 0)
(-0.00185779 -0.0155162 0)
(-0.00226771 0.0226411 0)
(-0.0127104 0.05942 0)
(-0.0322786 0.0855465 0)
(-0.0562635 0.100596 0)
(-0.0814713 0.105261 0)
(-0.105821 0.100745 0)
(-0.127695 0.0884517 0)
(-0.145863 0.06983 0)
(-0.159405 0.0463163 0)
(-0.167629 0.0193655 0)
(-0.170011 -0.00946936 0)
(-0.166191 -0.0384424 0)
(-0.156021 -0.0655366 0)
(-0.139667 -0.0884407 0)
(-0.117774 -0.104624 0)
(-0.0916574 -0.11156 0)
(-0.0634364 -0.107117 0)
(-0.0360685 -0.0900987 0)
(-0.0138277 -0.0608331 0)
(-0.00231818 -0.0218672 0)
(-0.00263067 0.0297069 0)
(-0.0145474 0.0764571 0)
(-0.0365745 0.108637 0)
(-0.0631561 0.126411 0)
(-0.0906474 0.131185 0)
(-0.116838 0.124821 0)
(-0.140142 0.109257 0)
(-0.159442 0.0863333 0)
(-0.173959 0.0577502 0)
(-0.183101 0.0251371 0)
(-0.186375 -0.00982234 0)
(-0.183349 -0.045238 0)
(-0.17369 -0.0788695 0)
(-0.157284 -0.108031 0)
(-0.134455 -0.129603 0)
(-0.10626 -0.140228 0)
(-0.0747613 -0.13676 0)
(-0.0432296 -0.116971 0)
(-0.0168806 -0.0804387 0)
(-0.00290819 -0.0296464 0)
(-0.00305029 0.0377789 0)
(-0.01655 0.0956413 0)
(-0.0410261 0.134206 0)
(-0.0699233 0.154492 0)
(-0.0991346 0.158911 0)
(-0.126406 0.150219 0)
(-0.150306 0.13103 0)
(-0.169963 0.103627 0)
(-0.184853 0.0699644 0)
(-0.194587 0.0317806 0)
(-0.198771 -0.00921401 0)
(-0.196934 -0.0511129 0)
(-0.188543 -0.0915833 0)
(-0.173122 -0.127665 0)
(-0.150509 -0.155671 0)
(-0.121266 -0.17129 0)
(-0.087135 -0.170039 0)
(-0.0515114 -0.148144 0)
(-0.0206207 -0.10385 0)
(-0.00368548 -0.0391879 0)
(-0.00357555 0.0469864 0)
(-0.018851 0.117065 0)
(-0.045752 0.162072 0)
(-0.0764901 0.184303 0)
(-0.106506 0.187612 0)
(-0.133653 0.175949 0)
(-0.156845 0.152764 0)
(-0.175633 0.120837 0)
(-0.189902 0.0823422 0)
(-0.199591 0.0390352 0)
(-0.204504 -0.00748187 0)
(-0.2042 -0.0554581 0)
(-0.197963 -0.102663 0)
(-0.184894 -0.146049 0)
(-0.164178 -0.181476 0)
(-0.135583 -0.203633 0)
(-0.100128 -0.206375 0)
(-0.060956 -0.183709 0)
(-0.0252347 -0.131627 0)
(-0.00473356 -0.0509348 0)
(-0.00430485 0.0575716 0)
(-0.0216975 0.140886 0)
(-0.0509576 0.19192 0)
(-0.0827368 0.214972 0)
(-0.112109 0.215983 0)
(-0.137308 0.200484 0)
(-0.157868 0.172927 0)
(-0.173994 0.136611 0)
(-0.18616 0.0938647 0)
(-0.194772 0.0463415 0)
(-0.19995 -0.00462824 0)
(-0.20138 -0.0576572 0)
(-0.198232 -0.110872 0)
(-0.189185 -0.161425 0)
(-0.172642 -0.204987 0)
(-0.147253 -0.235353 0)
(-0.11277 -0.244471 0)
(-0.0714201 -0.22333 0)
(-0.0309539 -0.164296 0)
(-0.00618624 -0.0654783 0)
(-0.00543332 0.0700004 0)
(-0.0255315 0.167365 0)
(-0.0569454 0.22319 0)
(-0.0883929 0.245091 0)
(-0.114866 0.242036 0)
(-0.135454 0.221589 0)
(-0.150702 0.189329 0)
(-0.16174 0.149026 0)
(-0.1698 0.103038 0)
(-0.175877 0.0527654 0)
(-0.180512 -0.000910056 0)
(-0.183634 -0.0571852 0)
(-0.184428 -0.114834 0)
(-0.181252 -0.171592 0)
(-0.171714 -0.223381 0)
(-0.153086 -0.263471 0)
(-0.123216 -0.28191 0)
(-0.0824026 -0.265878 0)
(-0.0380643 -0.2022 0)
(-0.00826838 -0.0836336 0)
(-0.00733214 0.0851591 0)
(-0.0310779 0.196857 0)
(-0.0639991 0.254817 0)
(-0.0926805 0.27237 0)
(-0.112777 0.262806 0)
(-0.125017 0.236141 0)
(-0.131459 0.199051 0)
(-0.134407 0.155582 0)
(-0.13595 0.107908 0)
(-0.137703 0.056989 0)
(-0.14067 0.00309501 0)
(-0.145123 -0.0537386 0)
(-0.15044 -0.113205 0)
(-0.154898 -0.174046 0)
(-0.155511 -0.233055 0)
(-0.148144 -0.28371 0)
(-0.12818 -0.314655 0)
(-0.0926633 -0.308831 0)
(-0.0468558 -0.245189 0)
(-0.0113508 -0.106555 0)
(-0.0106471 0.104653 0)
(-0.0393286 0.229616 0)
(-0.0718636 0.284666 0)
(-0.0933664 0.293081 0)
(-0.101826 0.274011 0)
(-0.100773 0.240031 0)
(-0.0942739 0.198533 0)
(-0.0858921 0.153392 0)
(-0.078472 0.10626 0)
(-0.0741016 0.0574499 0)
(-0.0741511 0.00651106 0)
(-0.0792609 -0.0473686 0)
(-0.0891947 -0.104953 0)
(-0.102526 -0.166347 0)
(-0.11619 -0.22992 0)
(-0.125075 -0.290478 0)
(-0.121987 -0.336553 0)
(-0.0993676 -0.347382 0)
(-0.0572973 -0.291918 0)
(-0.0159557 -0.135829 0)
(-0.016258 0.131271 0)
(-0.050948 0.265042 0)
(-0.07806 0.308309 0)
(-0.0845069 0.301201 0)
(-0.0738295 0.269769 0)
(-0.0536498 0.228353 0)
(-0.0301527 0.184032 0)
(-0.00780741 0.139732 0)
(0.0102601 0.0961317 0)
(0.0219149 0.0527249 0)
(0.0257181 0.00834711 0)
(0.0207776 -0.0385593 0)
(0.0068149 -0.0897405 0)
(-0.0155006 -0.146764 0)
(-0.0438709 -0.210137 0)
(-0.073324 -0.277342 0)
(-0.0949922 -0.339042 0)
(-0.0962116 -0.373199 0)
(-0.0678335 -0.338528 0)
(-0.0224227 -0.173606 0)
(-0.0244429 0.170007 0)
(-0.0636613 0.299428 0)
(-0.0732143 0.316267 0)
(-0.0516061 0.286945 0)
(-0.0126828 0.242465 0)
(0.0316972 0.196058 0)
(0.0743252 0.152593 0)
(0.111002 0.113027 0)
(0.139303 0.0766714 0)
(0.157766 0.0421792 0)
(0.16537 0.007881 0)
(0.161248 -0.0281771 0)
(0.144627 -0.0682933 0)
(0.115051 -0.115128 0)
(0.0730593 -0.171345 0)
(0.0216632 -0.238144 0)
(-0.0311687 -0.311258 0)
(-0.0697295 -0.372703 0)
(-0.0721248 -0.376076 0)
(-0.0293804 -0.223027 0)
(-0.0304248 0.226701 0)
(-0.0635003 0.319374 0)
(-0.0297757 0.289671 0)
(0.0373839 0.236144 0)
(0.110968 0.184332 0)
(0.179253 0.140237 0)
(0.237508 0.104191 0)
(0.283961 0.0745707 0)
(0.318195 0.0493929 0)
(0.340205 0.0268209 0)
(0.349869 0.00514852 0)
(0.346682 -0.0173948 0)
(0.329606 -0.0429128 0)
(0.297047 -0.074207 0)
(0.247169 -0.115093 0)
(0.179067 -0.170168 0)
(0.0953321 -0.242469 0)
(0.00742465 -0.326008 0)
(-0.0512987 -0.384024 0)
(-0.028135 -0.28329 0)
(0.00230217 0.274047 0)
(0.00916722 0.285885 0)
(0.123135 0.206577 0)
(0.244331 0.14367 0)
(0.343103 0.099995 0)
(0.420344 0.0696277 0)
(0.479479 0.0482781 0)
(0.523199 0.0327405 0)
(0.553734 0.020735 0)
(0.572667 0.0106985 0)
(0.580805 0.00147674 0)
(0.578155 -0.00795109 0)
(0.563802 -0.0188087 0)
(0.535663 -0.0328826 0)
(0.490175 -0.0531878 0)
(0.422151 -0.0849303 0)
(0.324491 -0.136336 0)
(0.191021 -0.216994 0)
(0.0514714 -0.318616 0)
(0.0227678 -0.310013 0)
(0.294226 0.144767 0)
(0.385846 0.126868 0)
(0.543934 0.0771274 0)
(0.660854 0.0455431 0)
(0.731972 0.0274204 0)
(0.777487 0.0167765 0)
(0.808118 0.0103782 0)
(0.828707 0.0063638 0)
(0.841991 0.00364258 0)
(0.849571 0.00158814 0)
(0.852257 -0.000180784 0)
(0.850233 -0.00193449 0)
(0.843085 -0.00400201 0)
(0.829609 -0.00688043 0)
(0.807249 -0.0115504 0)
(0.770959 -0.0200933 0)
(0.709273 -0.036885 0)
(0.596272 -0.0702906 0)
(0.42457 -0.127434 0)
(0.312515 -0.151331 0)
)
;

boundaryField
{
    movingWall
    {
        type            fixedValue;
        value           uniform (1 0 0);
    }
    fixedWalls
    {
        type            noSlip;
    }
    frontAndBack
    {
        type            empty;
    }
}


// ************************************************************************* //
