/*--------------------------------*- C++ -*----------------------------------*\
  =========                 |
  \\      /  F ield         | OpenFOAM: The Open Source CFD Toolbox
   \\    /   O peration     | Website:  https://openfoam.org
    \\  /    A nd           | Version:  9
     \\/     M anipulation  |
\*---------------------------------------------------------------------------*/
FoamFile
{
    format      ascii;
    class       volScalarField;
    location    "0.1";
    object      p;
}
// * * * * * * * * * * * * * * * * * * * * * * * * * * * * * * * * * * * * * //

dimensions      [0 2 -2 0 0 0 0];

internalField   nonuniform List<scalar> 
400
(
-1.57404e-08
-0.0026559
-0.00579146
-0.00806718
-0.00874728
-0.00753373
-0.00441974
0.000400051
0.00659
0.01371
0.0212398
0.0286014
0.0351928
0.0404397
0.0438673
0.045191
0.044421
0.0419668
0.0387209
0.0361165
0.00247459
-0.00025668
-0.00269688
-0.00422087
-0.00449132
-0.00329504
-0.000611089
0.00342228
0.00855024
0.0144275
0.0206378
0.0267158
0.0321776
0.0365666
0.0395128
0.0408021
0.0404539
0.0387654
0.0362204
0.0335526
0.00558213
0.00185232
-0.000757241
-0.00213043
-0.00230462
-0.00117275
0.00125855
0.00486197
0.00942202
0.0146483
0.020186
0.025631
0.0305565
0.0345523
0.0372749
0.0385074
0.0382303
0.0366298
0.0338321
0.0301135
0.00824758
0.00314415
-7.75006e-05
-0.00163766
-0.00189127
-0.000830528
0.00149514
0.00494549
0.00931802
0.0143492
0.019714
0.025033
0.0298923
0.0338769
0.0366161
0.0378418
0.0374673
0.0355807
0.0320279
0.0268196
0.00973942
0.00317247
-0.000797137
-0.00264971
-0.00301843
-0.00198279
0.000364654
0.00386382
0.00831485
0.0134683
0.0190131
0.0245745
0.0297267
0.0340198
0.0370223
0.0383829
0.0379275
0.0356491
0.0311534
0.0242791
0.00948004
0.00141119
-0.00335268
-0.00551461
-0.00596508
-0.00486234
-0.00234004
0.00142
0.00621632
0.0118072
0.0178863
0.0240711
0.0299053
0.0348796
0.0384709
0.0402109
0.03981
0.0371537
0.0316131
0.0229003
0.00695431
-0.00266775
-0.0082321
-0.0106607
-0.0111047
-0.00980078
-0.0069229
-0.00267417
0.00274289
0.00909442
0.0160777
0.0232974
0.0302559
0.0363645
0.0409772
0.0434674
0.0433872
0.0404783
0.0338368
0.0230509
0.00161585
-0.00963296
-0.0159716
-0.0185666
-0.0188604
-0.0171784
-0.0137378
-0.00876056
-0.00244461
0.00499219
0.0132593
0.0219547
0.0305392
0.0383318
0.0445332
0.0483081
0.0489865
0.0460952
0.0383584
0.0251949
-0.00717856
-0.0201487
-0.0271956
-0.0297871
-0.0297185
-0.0274286
-0.0231847
-0.0172247
-0.0097303
-0.000886515
0.0090486
0.0196864
0.0304606
0.040598
0.0491204
0.0549263
0.0570336
0.0546383
0.0459194
0.030021
-0.0202242
-0.035025
-0.0426439
-0.0449521
-0.0442039
-0.0409945
-0.0356546
-0.0284333
-0.019479
-0.00891701
0.00306095
0.0161174
0.029694
0.0429469
0.0547103
0.0635575
0.0680816
0.0669728
0.0575846
0.0385846
-0.0385405
-0.0552827
-0.0631971
-0.0647469
-0.062823
-0.0582457
-0.0514278
-0.0426224
-0.0319198
-0.0193483
-0.00498454
0.0109433
0.0279484
0.0451716
0.0612836
0.0744945
0.0828458
0.084281
0.0748953
0.0525058
-0.0635056
-0.0822588
-0.0899075
-0.0898696
-0.085968
-0.0793467
-0.0705202
-0.0597303
-0.0469733
-0.0321299
-0.0150974
0.00408428
0.0250969
0.0471687
0.06889
0.0881233
0.102252
0.108174
0.100087
0.0742792
-0.0971469
-0.117793
-0.124032
-0.120944
-0.113759
-0.104063
-0.092474
-0.0791837
-0.0640363
-0.0466975
-0.0268059
-0.00411343
0.0213585
0.0490854
0.0777478
0.104983
0.127497
0.140829
0.136412
0.107819
-0.142804
-0.164556
-0.167035
-0.158343
-0.145792
-0.131494
-0.116105
-0.0996682
-0.0817743
-0.0617803
-0.0389724
-0.0126966
0.0174687
0.051462
0.0883353
0.125801
0.160066
0.185125
0.188631
0.159497
-0.206603
-0.226587
-0.220445
-0.201793
-0.180722
-0.15972
-0.139239
-0.118953
-0.0980191
-0.0753485
-0.0497612
-0.0200905
0.0146887
0.0552242
0.101331
0.151345
0.201543
0.244611
0.263663
0.240074
-0.300274
-0.309938
-0.285409
-0.249745
-0.215735
-0.18547
-0.158588
-0.133941
-0.109945
-0.08488
-0.0569651
-0.0244308
0.0144826
0.0613761
0.117299
0.182049
0.253144
0.323089
0.370969
0.367428
-0.44654
-0.422993
-0.361964
-0.298979
-0.246465
-0.204321
-0.170194
-0.141294
-0.114811
-0.0881372
-0.058812
-0.0243846
0.0177186
0.0702518
0.136026
0.217434
0.315058
0.42363
0.522354
0.570909
-0.699131
-0.57544
-0.44438
-0.34156
-0.26552
-0.210297
-0.169746
-0.138153
-0.110894
-0.0843049
-0.0552354
-0.0206157
0.0228835
0.0792755
0.153644
0.252342
0.381512
0.543117
0.732492
0.913545
-1.20662
-0.76928
-0.496968
-0.345954
-0.250957
-0.189347
-0.148907
-0.120157
-0.0966029
-0.0738525
-0.0484907
-0.0172531
0.0234385
0.0784013
0.154791
0.263713
0.420448
0.647862
1.00942
1.55136
-2.1035
-0.959879
-0.450283
-0.2653
-0.176728
-0.128295
-0.101716
-0.0853785
-0.0723865
-0.0587695
-0.0417488
-0.0188771
0.0128701
0.0576394
0.12254
0.221081
0.37928
0.661349
1.28595
2.54557
)
;

boundaryField
{
    movingWall
    {
        type            zeroGradient;
    }
    fixedWalls
    {
        type            zeroGradient;
    }
    frontAndBack
    {
        type            empty;
    }
}


// ************************************************************************* //
