/*--------------------------------*- C++ -*----------------------------------*\
  =========                 |
  \\      /  F ield         | OpenFOAM: The Open Source CFD Toolbox
   \\    /   O peration     | Website:  https://openfoam.org
    \\  /    A nd           | Version:  9
     \\/     M anipulation  |
\*---------------------------------------------------------------------------*/
FoamFile
{
    format      ascii;
    class       surfaceScalarField;
    location    "0.1";
    object      phi;
}
// * * * * * * * * * * * * * * * * * * * * * * * * * * * * * * * * * * * * * //

dimensions      [0 3 -1 0 0 0 0];

internalField   nonuniform List<scalar> 
760
(
1.11636e-08
-1.11633e-08
-2.32572e-08
3.44208e-08
-1.06088e-07
8.28302e-08
-2.21945e-07
1.15856e-07
-3.53585e-07
1.3164e-07
-4.85252e-07
1.31667e-07
-6.03623e-07
1.18371e-07
-6.98008e-07
9.43843e-08
-7.60266e-07
6.22585e-08
-7.8479e-07
2.45239e-08
-7.6869e-07
-1.60992e-08
-7.12201e-07
-5.64887e-08
-6.19186e-07
-9.30153e-08
-4.97581e-07
-1.21606e-07
-3.5956e-07
-1.38022e-07
-2.21152e-07
-1.38409e-07
-1.01002e-07
-1.2015e-07
-1.80024e-08
-8.29992e-08
1.35706e-08
-3.15729e-08
1.35709e-08
-3.29032e-08
2.17395e-08
-1.6525e-07
1.66768e-07
-3.90405e-07
3.07987e-07
-6.80377e-07
4.05829e-07
-1.00082e-06
4.5208e-07
-1.31789e-06
4.48741e-07
-1.6015e-06
4.0198e-07
-1.8267e-06
3.19581e-07
-1.97428e-06
2.09842e-07
-2.0312e-06
8.14497e-08
-1.99117e-06
-5.61298e-08
-1.85543e-06
-1.92229e-07
-1.63365e-06
-3.14799e-07
-1.34451e-06
-4.10746e-07
-1.01559e-06
-4.66937e-07
-6.81956e-07
-4.72047e-07
-3.82794e-07
-4.19312e-07
-1.55749e-07
-3.10045e-07
-2.79903e-08
-1.59331e-07
-1.44195e-08
-8.40595e-08
1.05799e-07
-3.20807e-07
4.03514e-07
-6.80752e-07
6.67932e-07
-1.12199e-06
8.4707e-07
-1.59771e-06
9.27796e-07
-2.06219e-06
9.13225e-07
-2.4745e-06
8.14289e-07
-2.80042e-06
6.455e-07
-3.01349e-06
4.22909e-07
-3.09574e-06
1.63699e-07
-3.03854e-06
-1.13328e-07
-2.84364e-06
-3.87126e-07
-2.52426e-06
-6.34182e-07
-2.10578e-06
-8.29225e-07
-1.62553e-06
-9.47186e-07
-1.13087e-06
-9.66712e-07
-6.74943e-07
-8.75235e-07
-3.099e-07
-6.75087e-07
-7.76482e-08
-3.91582e-07
-9.20682e-08
-1.30858e-07
2.36657e-07
-4.69383e-07
7.42039e-07
-9.60075e-07
1.15862e-06
-1.54371e-06
1.4307e-06
-2.16088e-06
1.54496e-06
-2.75608e-06
1.50843e-06
-3.28052e-06
1.33873e-06
-3.6937e-06
1.05868e-06
-3.9643e-06
6.93509e-07
-4.07087e-06
2.70274e-07
-4.00275e-06
-1.81455e-07
-3.76123e-06
-6.28646e-07
-3.36098e-06
-1.03443e-06
-2.83114e-06
-1.35906e-06
-2.21551e-06
-1.56282e-06
-1.57092e-06
-1.61131e-06
-9.63163e-07
-1.48299e-06
-4.6021e-07
-1.17804e-06
-1.23468e-07
-7.28324e-07
-2.15537e-07
-1.74223e-07
4.1088e-07
-6.12163e-07
1.17998e-06
-1.23203e-06
1.77849e-06
-1.95527e-06
2.15394e-06
-2.70901e-06
2.29871e-06
-3.42853e-06
2.22795e-06
-4.05871e-06
1.9689e-06
-4.55455e-06
1.55453e-06
-4.8814e-06
1.02036e-06
-5.01513e-06
4.04004e-07
-4.94287e-06
-2.53712e-07
-4.66435e-06
-9.07174e-07
-4.19369e-06
-1.50509e-06
-3.56138e-06
-1.99137e-06
-2.81548e-06
-2.30871e-06
-2.02119e-06
-2.4056e-06
-1.2576e-06
-2.24657e-06
-6.11344e-07
-1.8243e-06
-1.67478e-07
-1.17219e-06
-3.83014e-07
-2.16801e-07
6.27681e-07
-7.54561e-07
1.71774e-06
-1.50486e-06
2.52879e-06
-2.36836e-06
3.01744e-06
-3.25793e-06
3.18827e-06
-4.09988e-06
3.0699e-06
-4.83385e-06
2.70287e-06
-5.4118e-06
2.13247e-06
-5.79692e-06
1.40548e-06
-5.96303e-06
5.70106e-07
-5.89474e-06
-3.21998e-07
-5.58892e-06
-1.213e-06
-5.05707e-06
-2.03694e-06
-4.32852e-06
-2.71992e-06
-3.45343e-06
-3.1838e-06
-2.5044e-06
-3.35464e-06
-1.57491e-06
-3.17606e-06
-7.73607e-07
-2.6256e-06
-2.13916e-07
-1.73188e-06
-5.96929e-07
-2.61006e-07
8.88687e-07
-9.02107e-07
2.35884e-06
-1.78636e-06
3.41305e-06
-2.792e-06
4.02308e-06
-3.81702e-06
4.21329e-06
-4.77938e-06
4.03227e-06
-5.6149e-06
3.53839e-06
-6.2742e-06
2.79178e-06
-6.71987e-06
1.85115e-06
-6.92443e-06
7.7467e-07
-6.86988e-06
-3.7655e-07
-6.54888e-06
-1.534e-06
-5.96791e-06
-2.61791e-06
-5.15202e-06
-3.5358e-06
-4.1504e-06
-4.18542e-06
-3.04107e-06
-4.46398e-06
-1.93233e-06
-4.28479e-06
-9.58394e-07
-3.59954e-06
-2.67241e-07
-2.42304e-06
-8.64172e-07
-3.08829e-07
1.19752e-06
-1.0593e-06
3.10931e-06
-2.08188e-06
4.43563e-06
-3.23003e-06
5.17123e-06
-4.3866e-06
5.36986e-06
-5.46257e-06
5.10824e-06
-6.39228e-06
4.4681e-06
-7.12766e-06
3.52715e-06
-7.63294e-06
2.35644e-06
-7.88095e-06
1.02267e-06
-7.85131e-06
-4.06184e-07
-7.53138e-06
-1.85393e-06
-6.91986e-06
-3.22943e-06
-6.03339e-06
-4.42226e-06
-4.9154e-06
-5.30342e-06
-3.64527e-06
-5.7341e-06
-2.34474e-06
-5.58532e-06
-1.17667e-06
-4.76761e-06
-3.31866e-07
-3.26784e-06
-1.19604e-06
-3.62004e-07
1.55952e-06
-1.22956e-06
3.97687e-06
-2.39369e-06
5.59975e-06
-3.6798e-06
6.45733e-06
-4.95588e-06
6.64594e-06
-6.12859e-06
6.28096e-06
-7.13465e-06
5.47416e-06
-7.93131e-06
4.32381e-06
-8.48808e-06
2.91321e-06
-8.78062e-06
1.31521e-06
-8.78745e-06
-3.99359e-07
-8.48992e-06
-2.15146e-06
-7.87611e-06
-3.84324e-06
-6.94903e-06
-5.34934e-06
-5.73924e-06
-6.51321e-06
-4.32018e-06
-7.15316e-06
-2.82221e-06
-7.08329e-06
-1.43831e-06
-6.15151e-06
-4.12256e-07
-4.2939e-06
-1.60829e-06
-4.22579e-07
1.9821e-06
-1.4161e-06
4.97039e-06
-2.72135e-06
6.90501e-06
-4.13146e-06
7.86744e-06
-5.50103e-06
8.01551e-06
-6.73718e-06
7.51711e-06
-7.78498e-06
6.52195e-06
-8.61292e-06
5.15176e-06
-9.20094e-06
3.50122e-06
-9.53153e-06
1.64581e-06
-9.58455e-06
-3.46345e-07
-9.33573e-06
-2.40028e-06
-8.76004e-06
-4.41894e-06
-7.84089e-06
-6.26848e-06
-6.58642e-06
-7.76768e-06
-5.0523e-06
-8.68728e-06
-3.36726e-06
-8.76834e-06
-1.75168e-06
-7.76709e-06
-5.1336e-07
-5.53222e-06
-2.12165e-06
-4.9402e-07
2.47612e-06
-1.62356e-06
6.09994e-06
-3.0626e-06
8.34404e-06
-4.5672e-06
9.37205e-06
-5.98272e-06
9.43102e-06
-7.22485e-06
8.75924e-06
-8.25587e-06
7.55297e-06
-9.06361e-06
5.9595e-06
-9.64516e-06
4.08276e-06
-9.99527e-06
1.99593e-06
-1.0099e-05
-2.42583e-07
-9.92851e-06
-2.57081e-06
-9.44441e-06
-4.90303e-06
-8.60489e-06
-7.108e-06
-7.38418e-06
-8.98839e-06
-5.80323e-06
-1.02682e-05
-3.97064e-06
-1.06009e-05
-2.12316e-06
-9.61457e-06
-6.41364e-07
-7.01401e-06
-2.76302e-06
-5.83156e-07
3.05927e-06
-1.86052e-06
7.3773e-06
-3.41383e-06
9.89735e-06
-4.95886e-06
1.09171e-05
-6.34126e-06
1.08134e-05
-7.49874e-06
9.91672e-06
-8.42328e-06
8.47752e-06
-9.13209e-06
6.6683e-06
-9.64718e-06
4.59786e-06
-9.98181e-06
2.33056e-06
-1.01314e-05
-9.29726e-08
-1.00684e-05
-2.63386e-06
-9.74059e-06
-5.23081e-06
-9.07756e-06
-7.77103e-06
-8.00822e-06
-1.00577e-05
-6.4973e-06
-1.17791e-05
-4.60398e-06
-1.24943e-05
-2.55559e-06
-1.1663e-05
-8.0493e-07
-8.76467e-06
-3.56795e-06
-7.03471e-07
3.76274e-06
-2.14203e-06
8.81586e-06
-3.76801e-06
1.15233e-05
-5.26054e-06
1.24096e-05
-6.48605e-06
1.20389e-05
-7.42549e-06
1.08562e-05
-8.11692e-06
9.16895e-06
-8.61779e-06
7.16917e-06
-8.98219e-06
4.96226e-06
-9.24729e-06
2.59566e-06
-9.42431e-06
8.40401e-08
-9.49175e-06
-2.56642e-06
-9.39021e-06
-5.33235e-06
-9.02234e-06
-8.13889e-06
-8.26462e-06
-1.08155e-05
-7.00303e-06
-1.30407e-05
-5.20659e-06
-1.42907e-05
-3.04423e-06
-1.38253e-05
-1.01705e-06
-1.07918e-05
-4.585e-06
-8.80242e-07
4.64299e-06
-2.48983e-06
1.04255e-05
-4.10357e-06
1.31371e-05
-5.38853e-06
1.36946e-05
-6.27195e-06
1.29224e-05
-6.80954e-06
1.13937e-05
-7.10396e-06
9.46336e-06
-7.26147e-06
7.32668e-06
-7.37132e-06
5.07212e-06
-7.49635e-06
2.72069e-06
-7.66704e-06
2.54729e-07
-7.87476e-06
-2.3587e-06
-8.06303e-06
-5.14408e-06
-8.11831e-06
-8.08362e-06
-7.8684e-06
-1.10654e-05
-7.10531e-06
-1.38038e-05
-5.66084e-06
-1.57352e-05
-3.56575e-06
-1.59204e-05
-1.29689e-06
-1.30607e-05
-5.88189e-06
-1.15604e-06
5.79903e-06
-2.92043e-06
1.21898e-05
-4.34893e-06
1.45656e-05
-5.17244e-06
1.45181e-05
-5.45041e-06
1.32003e-05
-5.35304e-06
1.12964e-05
-5.06194e-06
9.17226e-06
-4.73171e-06
6.99645e-06
-4.48041e-06
4.82081e-06
-4.39047e-06
2.63075e-06
-4.50977e-06
3.74029e-07
-4.84808e-06
-2.02039e-06
-5.36599e-06
-4.62617e-06
-5.95589e-06
-7.49372e-06
-6.42014e-06
-1.06011e-05
-6.4641e-06
-1.37599e-05
-5.74541e-06
-1.64539e-05
-4.04801e-06
-1.76178e-05
-1.6666e-06
-1.54421e-05
-7.54849e-06
-1.58426e-06
7.38329e-06
-3.38917e-06
1.39948e-05
-4.28476e-06
1.54612e-05
-4.24822e-06
1.44815e-05
-3.57741e-06
1.25295e-05
-2.58966e-06
1.03086e-05
-1.53945e-06
8.12205e-06
-6.09033e-07
6.06604e-06
7.7174e-08
4.13461e-06
4.35313e-07
2.27261e-06
4.09975e-07
3.99368e-07
-2.74761e-08
-1.58294e-06
-8.69553e-07
-3.78409e-06
-2.0471e-06
-6.31617e-06
-3.38604e-06
-9.26218e-06
-4.5553e-06
-1.25906e-05
-5.04699e-06
-1.59622e-05
-4.29016e-06
-1.83746e-05
-2.12329e-06
-1.7609e-05
-9.67178e-06
-2.16976e-06
9.55305e-06
-3.6021e-06
1.54271e-05
-3.30531e-06
1.51644e-05
-1.84767e-06
1.30239e-05
1.35855e-07
1.0546e-05
2.20367e-06
8.24082e-06
4.08374e-06
6.24198e-06
5.62031e-06
4.52947e-06
6.72491e-06
3.03e-06
7.34155e-06
1.65598e-06
7.42624e-06
3.14674e-07
6.93838e-06
-1.09508e-06
5.84472e-06
-2.69043e-06
4.14203e-06
-4.61348e-06
1.91003e-06
-7.03018e-06
-5.93262e-07
-1.00873e-05
-2.80439e-06
-1.3751e-05
-3.78067e-06
-1.73984e-05
-2.54387e-06
-1.88458e-05
-1.22157e-05
-2.64227e-06
1.21953e-05
-2.47933e-06
1.52642e-05
1.02529e-07
1.25825e-05
3.55864e-06
9.56778e-06
7.0136e-06
7.09103e-06
1.00765e-05
5.17797e-06
1.25947e-05
3.72369e-06
1.4526e-05
2.59823e-06
1.58688e-05
1.68718e-06
1.66258e-05
8.99024e-07
1.67837e-05
1.56749e-07
1.63041e-05
-6.1554e-07
1.51185e-05
-1.50477e-06
1.31358e-05
-2.63077e-06
1.02764e-05
-4.17085e-06
6.56828e-06
-6.37914e-06
2.35973e-06
-9.54249e-06
-1.30787e-06
-1.37308e-05
-2.4401e-06
-1.77135e-05
-1.46557e-05
-1.03305e-06
1.32284e-05
3.43694e-06
1.07942e-05
9.35316e-06
6.66628e-06
1.46686e-05
4.25232e-06
1.89687e-05
2.79092e-06
2.22939e-05
1.85282e-06
2.47818e-05
1.2358e-06
2.65677e-05
8.12304e-07
2.77546e-05
5.00258e-07
2.84058e-05
2.47874e-07
2.8542e-05
2.05378e-08
2.8141e-05
-2.14558e-07
2.71252e-05
-4.89019e-07
2.53507e-05
-8.56173e-07
2.25891e-05
-1.40933e-06
1.85386e-05
-2.32862e-06
1.2955e-05
-3.95886e-06
6.1385e-06
-6.91431e-06
2.53451e-07
-1.18285e-05
-1.44023e-05
1.32284e-05
2.40225e-05
3.06888e-05
3.49411e-05
3.77321e-05
3.95849e-05
4.08207e-05
4.1633e-05
4.21332e-05
4.23811e-05
4.24017e-05
4.21871e-05
4.16981e-05
4.08419e-05
3.94326e-05
3.7104e-05
3.31451e-05
2.62308e-05
1.44023e-05
)
;

boundaryField
{
    movingWall
    {
        type            calculated;
        value           uniform 0;
    }
    fixedWalls
    {
        type            calculated;
        value           uniform 0;
    }
    frontAndBack
    {
        type            empty;
        value           nonuniform List<scalar> 0();
    }
}


// ************************************************************************* //
