/*--------------------------------*- C++ -*----------------------------------*\
  =========                 |
  \\      /  F ield         | OpenFOAM: The Open Source CFD Toolbox
   \\    /   O peration     | Website:  https://openfoam.org
    \\  /    A nd           | Version:  9
     \\/     M anipulation  |
\*---------------------------------------------------------------------------*/
FoamFile
{
    format      ascii;
    class       volVectorField;
    location    "0.1";
    object      U;
}
// * * * * * * * * * * * * * * * * * * * * * * * * * * * * * * * * * * * * * //

dimensions      [0 1 -1 0 0 0 0];

internalField   nonuniform List<vector> 
400
(
(0.000207373 -0.000211849 0)
(7.37393e-05 0.000117149 0)
(-0.00113363 0.000514842 0)
(-0.00318268 0.000785663 0)
(-0.00572487 0.0009167 0)
(-0.00841923 0.000926188 0)
(-0.0109714 0.000836917 0)
(-0.01314 0.000670493 0)
(-0.0147364 0.000445925 0)
(-0.0156224 0.000180772 0)
(-0.0157116 -0.000106457 0)
(-0.014976 -0.00039406 0)
(-0.0134548 -0.000655818 0)
(-0.0112653 -0.000861098 0)
(-0.00860953 -0.000976621 0)
(-0.00577377 -0.000970335 0)
(-0.00311302 -0.000817995 0)
(-0.00101557 -0.000512735 0)
(0.000157511 -9.25747e-05 0)
(0.000236202 0.000229755 0)
(-9.819e-05 -9.59348e-05 0)
(-0.0015161 0.00152868 0)
(-0.00517102 0.00324198 0)
(-0.0104869 0.0044382 0)
(-0.0167547 0.00501611 0)
(-0.0232806 0.00501128 0)
(-0.0294178 0.00450487 0)
(-0.0346104 0.00359155 0)
(-0.0384144 0.00236734 0)
(-0.0405049 0.000929943 0)
(-0.0406853 -0.000614965 0)
(-0.0389014 -0.00214716 0)
(-0.0352591 -0.00352877 0)
(-0.0300408 -0.00460732 0)
(-0.0237129 -0.00522695 0)
(-0.0169132 -0.00524964 0)
(-0.010402 -0.00458819 0)
(-0.00496988 -0.00325041 0)
(-0.00135111 -0.00142736 0)
(-4.08203e-05 0.000188113 0)
(-0.000494919 0.00107081 0)
(-0.00336703 0.005208 0)
(-0.00947953 0.00909074 0)
(-0.0177457 0.0117754 0)
(-0.0271473 0.0130303 0)
(-0.0367602 0.0128965 0)
(-0.0457116 0.0115363 0)
(-0.0532416 0.00916354 0)
(-0.058739 0.00601229 0)
(-0.0617562 0.00233092 0)
(-0.0620229 -0.00160915 0)
(-0.0594654 -0.00550305 0)
(-0.0542291 -0.00900891 0)
(-0.0466984 -0.011758 0)
(-0.0375057 -0.0133838 0)
(-0.027513 -0.0135744 0)
(-0.0177447 -0.0121491 0)
(-0.00926862 -0.00915396 0)
(-0.00316172 -0.00500451 0)
(-0.000419405 -0.000863513 0)
(-0.000847087 0.00323404 0)
(-0.00511384 0.0109882 0)
(-0.013634 0.017644 0)
(-0.0247247 0.0220959 0)
(-0.0370245 0.0240526 0)
(-0.0494044 0.0235969 0)
(-0.0608213 0.0210022 0)
(-0.0703742 0.0166327 0)
(-0.0773409 0.0108945 0)
(-0.0811905 0.00422469 0)
(-0.0815971 -0.00289808 0)
(-0.0784611 -0.00993883 0)
(-0.0719362 -0.0163015 0)
(-0.0624568 -0.0213463 0)
(-0.0507555 -0.0244397 0)
(-0.037854 -0.0250416 0)
(-0.0249935 -0.0228308 0)
(-0.0135137 -0.0178533 0)
(-0.00489603 -0.0107018 0)
(-0.0007526 -0.00287962 0)
(-0.00116069 0.00628956 0)
(-0.00676447 0.0187588 0)
(-0.0176623 0.0287553 0)
(-0.0315401 0.0351756 0)
(-0.0466607 0.0377808 0)
(-0.0616881 0.0367692 0)
(-0.0754332 0.0325728 0)
(-0.0868901 0.0257391 0)
(-0.0952609 0.0168703 0)
(-0.0999563 0.00661092 0)
(-0.100602 -0.0043357 0)
(-0.0970596 -0.0151842 0)
(-0.0894581 -0.0250567 0)
(-0.0782356 -0.0330036 0)
(-0.0641757 -0.0380704 0)
(-0.0484219 -0.0394208 0)
(-0.0324247 -0.0365136 0)
(-0.0178303 -0.029308 0)
(-0.00660344 -0.0184816 0)
(-0.00105549 -0.00578246 0)
(-0.00146256 0.0101969 0)
(-0.00839814 0.0285061 0)
(-0.0216969 0.0424451 0)
(-0.0383867 0.0510354 0)
(-0.0563281 0.054214 0)
(-0.0739724 0.0523902 0)
(-0.0900002 0.0462212 0)
(-0.103329 0.0364779 0)
(-0.113113 0.0239788 0)
(-0.118726 0.00958299 0)
(-0.119748 -0.00578098 0)
(-0.115985 -0.0210748 0)
(-0.107508 -0.0351255 0)
(-0.0947094 -0.0466398 0)
(-0.0783729 -0.0542802 0)
(-0.0597283 -0.0568211 0)
(-0.0404331 -0.0533834 0)
(-0.0224847 -0.0437119 0)
(-0.0084238 -0.0284597 0)
(-0.00136767 -0.0095747 0)
(-0.00177657 0.0149648 0)
(-0.0100953 0.0402743 0)
(-0.0258744 0.0587734 0)
(-0.0454368 0.069722 0)
(-0.0662137 0.0733697 0)
(-0.0864453 0.0704535 0)
(-0.104705 0.0619378 0)
(-0.119866 0.0488637 0)
(-0.131073 0.0322829 0)
(-0.137684 0.0132634 0)
(-0.139244 -0.00705809 0)
(-0.135489 -0.0274079 0)
(-0.126392 -0.0463223 0)
(-0.112243 -0.0621392 0)
(-0.0937595 -0.0730708 0)
(-0.0722007 -0.0773841 0)
(-0.0494097 -0.0737 0)
(-0.0277709 -0.0613711 0)
(-0.0105136 -0.0408822 0)
(-0.00173037 -0.0143488 0)
(-0.00212271 0.0206469 0)
(-0.0119245 0.0541623 0)
(-0.0303024 0.0778265 0)
(-0.052793 0.0912705 0)
(-0.0763674 0.0952228 0)
(-0.0990694 0.0908915 0)
(-0.119406 0.0796478 0)
(-0.136261 0.0628556 0)
(-0.148818 0.0418111 0)
(-0.156463 0.0177718 0)
(-0.158724 -0.00795617 0)
(-0.155261 -0.0339075 0)
(-0.145909 -0.0583573 0)
(-0.130785 -0.07927 0)
(-0.110446 -0.0943437 0)
(-0.0860859 -0.101199 0)
(-0.059666 -0.097745 0)
(-0.0339647 -0.0826895 0)
(-0.0130299 -0.0561317 0)
(-0.00218538 -0.0202868 0)
(-0.00251989 0.0273333 0)
(-0.0139455 0.0703116 0)
(-0.0350543 0.0996911 0)
(-0.0604694 0.115657 0)
(-0.0866676 0.119638 0)
(-0.111534 0.113494 0)
(-0.13358 0.0991252 0)
(-0.151783 0.0782764 0)
(-0.165446 0.0524922 0)
(-0.174045 0.0231822 0)
(-0.177131 -0.008243 0)
(-0.174296 -0.0402028 0)
(-0.165204 -0.070779 0)
(-0.149718 -0.0975935 0)
(-0.128106 -0.117789 0)
(-0.101341 -0.128194 0)
(-0.0713657 -0.125737 0)
(-0.0412957 -0.108123 0)
(-0.0161299 -0.074715 0)
(-0.00277867 -0.0276601 0)
(-0.00299313 0.0351496 0)
(-0.0162269 0.0888912 0)
(-0.0401839 0.124409 0)
(-0.0683891 0.142722 0)
(-0.0967951 0.146264 0)
(-0.123205 0.137791 0)
(-0.146251 0.119876 0)
(-0.165129 0.0947059 0)
(-0.179372 0.0640652 0)
(-0.188641 0.0294579 0)
(-0.192578 -0.00769587 0)
(-0.190734 -0.0458173 0)
(-0.182589 -0.082914 0)
(-0.167667 -0.116354 0)
(-0.145791 -0.142736 0)
(-0.11749 -0.157969 0)
(-0.0844385 -0.157684 0)
(-0.0499218 -0.138085 0)
(-0.0199793 -0.0972333 0)
(-0.00356835 -0.0368334 0)
(-0.00358728 0.0442725 0)
(-0.0188793 0.110092 0)
(-0.045756 0.151923 0)
(-0.0763869 0.172064 0)
(-0.106199 0.174406 0)
(-0.133058 0.162914 0)
(-0.155904 0.141004 0)
(-0.174319 0.111357 0)
(-0.188221 0.0759743 0)
(-0.197575 0.0363688 0)
(-0.202207 -0.00615607 0)
(-0.201694 -0.0501833 0)
(-0.19534 -0.093827 0)
(-0.182271 -0.134372 0)
(-0.161701 -0.167977 0)
(-0.133421 -0.189571 0)
(-0.0984512 -0.193165 0)
(-0.0598869 -0.172799 0)
(-0.024767 -0.124335 0)
(-0.00463868 -0.0482819 0)
(-0.0043928 0.0549755 0)
(-0.0221105 0.134136 0)
(-0.0518837 0.181996 0)
(-0.084192 0.202897 0)
(-0.114019 0.202851 0)
(-0.139567 0.187427 0)
(-0.160352 0.161058 0)
(-0.176579 0.126952 0)
(-0.188719 0.0872615 0)
(-0.197181 0.0433986 0)
(-0.202086 -0.00360534 0)
(-0.203131 -0.0526915 0)
(-0.199508 -0.102321 0)
(-0.18994 -0.149966 0)
(-0.172896 -0.191586 0)
(-0.147106 -0.221225 0)
(-0.112399 -0.231021 0)
(-0.0710367 -0.212055 0)
(-0.0307235 -0.156632 0)
(-0.00612442 -0.0626298 0)
(-0.0055928 0.0677299 0)
(-0.0263063 0.161291 0)
(-0.058741 0.214081 0)
(-0.0913261 0.233833 0)
(-0.118897 0.229637 0)
(-0.140467 0.20913 0)
(-0.156528 0.177895 0)
(-0.168168 0.139617 0)
(-0.176585 0.0964866 0)
(-0.182747 0.0496657 0)
(-0.187175 -0.000253767 0)
(-0.189794 -0.0527814 0)
(-0.18981 -0.107003 0)
(-0.185634 -0.160942 0)
(-0.174965 -0.210783 0)
(-0.155208 -0.25003 0)
(-0.124356 -0.268934 0)
(-0.0828382 -0.254823 0)
(-0.038129 -0.194549 0)
(-0.00825136 -0.0807248 0)
(-0.00754313 0.0833925 0)
(-0.0321229 0.191849 0)
(-0.0664598 0.247043 0)
(-0.0967703 0.262518 0)
(-0.118507 0.251753 0)
(-0.132289 0.224876 0)
(-0.140087 0.188591 0)
(-0.144122 0.146872 0)
(-0.146416 0.101733 0)
(-0.148525 0.0539075 0)
(-0.15141 0.00339005 0)
(-0.155324 -0.0500718 0)
(-0.159659 -0.106449 0)
(-0.162745 -0.164729 0)
(-0.161703 -0.22192 0)
(-0.15256 -0.271695 0)
(-0.130903 -0.302891 0)
(-0.0939895 -0.298634 0)
(-0.0472577 -0.237989 0)
(-0.0113904 -0.10375 0)
(-0.0108734 0.103499 0)
(-0.0404835 0.225926 0)
(-0.0746375 0.278583 0)
(-0.0980607 0.285071 0)
(-0.108526 0.26479 0)
(-0.109434 0.230465 0)
(-0.104728 0.189532 0)
(-0.0978539 0.145808 0)
(-0.0915495 0.100798 0)
(-0.0878134 0.0546047 0)
(-0.0879508 0.00652488 0)
(-0.0925682 -0.0445092 0)
(-0.101436 -0.0994979 0)
(-0.113181 -0.158742 0)
(-0.124847 -0.220765 0)
(-0.131494 -0.280512 0)
(-0.126157 -0.326667 0)
(-0.101552 -0.338658 0)
(-0.0580473 -0.285622 0)
(-0.0160612 -0.133311 0)
(-0.0164515 0.13073 0)
(-0.0520044 0.262715 0)
(-0.0806954 0.304043 0)
(-0.0891007 0.295249 0)
(-0.0805672 0.262677 0)
(-0.0625744 0.220837 0)
(-0.0411542 0.176863 0)
(-0.0206206 0.133632 0)
(-0.00395429 0.091691 0)
(0.00682685 0.0503454 0)
(0.0103663 0.00821502 0)
(0.00581508 -0.0364741 0)
(-0.00711266 -0.0856583 0)
(-0.0278014 -0.14105 0)
(-0.0540584 -0.203254 0)
(-0.0810736 -0.269823 0)
(-0.100203 -0.331511 0)
(-0.0990693 -0.366439 0)
(-0.0688858 -0.333538 0)
(-0.0225944 -0.171558 0)
(-0.0245558 0.169954 0)
(-0.0644125 0.298284 0)
(-0.0752649 0.313686 0)
(-0.0554001 0.28302 0)
(-0.018519 0.237579 0)
(0.0236675 0.19076 0)
(0.0641322 0.147478 0)
(0.0988675 0.108651 0)
(0.12562 0.0734769 0)
(0.14307 0.0404559 0)
(0.150286 0.00774996 0)
(0.146442 -0.0267617 0)
(0.130749 -0.0655178 0)
(0.102688 -0.111277 0)
(0.0626935 -0.166752 0)
(0.013634 -0.233158 0)
(-0.0367104 -0.306256 0)
(-0.0728791 -0.368159 0)
(-0.0733466 -0.372656 0)
(-0.0295993 -0.221596 0)
(-0.0304306 0.22691 0)
(-0.0638201 0.319048 0)
(-0.0309523 0.288433 0)
(0.0348722 0.234 0)
(0.106729 0.181521 0)
(0.173048 0.137119 0)
(0.229298 0.10116 0)
(0.273915 0.0719825 0)
(0.306667 0.0475239 0)
(0.327692 0.0258414 0)
(0.336955 0.0051164 0)
(0.333977 -0.0165285 0)
(0.317687 -0.0412851 0)
(0.286416 -0.0720109 0)
(0.23822 -0.112541 0)
(0.172069 -0.167459 0)
(0.0904162 -0.239788 0)
(0.0045562 -0.323574 0)
(-0.0524493 -0.382181 0)
(-0.0283497 -0.282534 0)
(0.00238378 0.274278 0)
(0.00924187 0.285951 0)
(0.122821 0.206223 0)
(0.243188 0.142876 0)
(0.340732 0.0988744 0)
(0.416491 0.0683569 0)
(0.47408 0.0470444 0)
(0.51638 0.0317067 0)
(0.54578 0.0200197 0)
(0.563979 0.0103677 0)
(0.571844 0.00154346 0)
(0.569388 -0.00752446 0)
(0.55565 -0.0180948 0)
(0.528465 -0.0319753 0)
(0.484172 -0.0521844 0)
(0.417482 -0.0839133 0)
(0.321205 -0.135367 0)
(0.189091 -0.216135 0)
(0.0507041 -0.317988 0)
(0.0226346 -0.309805 0)
(0.294314 0.14486 0)
(0.386059 0.126949 0)
(0.544097 0.0771131 0)
(0.660718 0.0454212 0)
(0.731304 0.0272189 0)
(0.77615 0.0165397 0)
(0.806085 0.0101514 0)
(0.826054 0.00618358 0)
(0.83887 0.00353297 0)
(0.846183 0.00155986 0)
(0.848817 -0.000129156 0)
(0.846946 -0.00181744 0)
(0.840123 -0.00383866 0)
(0.827089 -0.00669285 0)
(0.805236 -0.0113592 0)
(0.769466 -0.0199132 0)
(0.708276 -0.0367232 0)
(0.595733 -0.0701526 0)
(0.42441 -0.127345 0)
(0.312515 -0.15133 0)
)
;

boundaryField
{
    movingWall
    {
        type            fixedValue;
        value           uniform (1 0 0);
    }
    fixedWalls
    {
        type            noSlip;
    }
    frontAndBack
    {
        type            empty;
    }
}


// ************************************************************************* //
