/*--------------------------------*- C++ -*----------------------------------*\
  =========                 |
  \\      /  F ield         | OpenFOAM: The Open Source CFD Toolbox
   \\    /   O peration     | Website:  https://openfoam.org
    \\  /    A nd           | Version:  9
     \\/     M anipulation  |
\*---------------------------------------------------------------------------*/
FoamFile
{
    format      ascii;
    class       volScalarField;
    location    "0.4";
    object      p;
}
// * * * * * * * * * * * * * * * * * * * * * * * * * * * * * * * * * * * * * //

dimensions      [0 2 -2 0 0 0 0];

internalField   nonuniform List<scalar> 
400
(
2.66769e-06
-0.00291698
-0.0064414
-0.00910856
-0.0100921
-0.00903025
-0.00589208
-0.000873931
0.00566702
0.013249
0.0212903
0.0291379
0.0361111
0.0415655
0.0449794
0.0460576
0.0448472
0.0418489
0.0380958
0.0351949
0.00289867
-0.000112969
-0.00286379
-0.0046822
-0.00519147
-0.00414248
-0.00149655
0.00261135
0.00791705
0.0140508
0.0205562
0.0269162
0.0325915
0.0370757
0.0399656
0.0410401
0.0403458
0.038242
0.0352958
0.0323306
0.00663006
0.0024654
-0.000494752
-0.0021498
-0.00255642
-0.00159449
0.00073954
0.0043227
0.00893786
0.0142824
0.0199757
0.0255765
0.0306144
0.0346376
0.0372728
0.0382932
0.0376969
0.035712
0.0325
0.0283691
0.00990319
0.00418261
0.000530907
-0.0013407
-0.00185397
-0.00100443
0.0011629
0.0045127
0.00884689
0.0138992
0.019329
0.0247281
0.0296441
0.0336215
0.0362567
0.0372643
0.0365657
0.0342764
0.0302414
0.0244668
0.0118323
0.00450654
3.98565e-05
-0.00215832
-0.00282367
-0.00204959
7.35928e-05
0.00339357
0.00772173
0.0128148
0.0183551
0.0239456
0.0291245
0.0333997
0.0363002
0.0374482
0.0366662
0.033963
0.0289152
0.0213328
0.0117479
0.00284304
-0.00245487
-0.00498854
-0.00577349
-0.00498689
-0.00275831
0.000744083
0.00533826
0.010798
0.016819
0.0230023
0.0288572
0.0338285
0.0373457
0.0389018
0.038192
0.0351058
0.0289657
0.0194418
0.00907556
-0.00137861
-0.00747409
-0.0102862
-0.0110984
-0.0101661
-0.00765387
-0.00374217
0.00139597
0.00755249
0.0144361
0.0216408
0.0286364
0.0347842
0.0393812
0.0417491
0.0414103
0.0380988
0.0308497
0.0192038
0.00324848
-0.00873932
-0.0155612
-0.0185332
-0.0192211
-0.0179644
-0.0149624
-0.0104035
-0.00444378
0.0027367
0.0108693
0.0195488
0.0282055
0.0361048
0.0423806
0.046132
0.0466431
0.0434203
0.0351193
0.0211116
-0.0063533
-0.019881
-0.0273184
-0.0302603
-0.0306002
-0.0287835
-0.0250501
-0.0195911
-0.0125326
-0.00400762
0.00576012
0.0163878
0.027282
0.0376134
0.0463283
0.0522447
0.0543188
0.0517119
0.0425306
0.0258752
-0.0204521
-0.035552
-0.0434286
-0.0460393
-0.0456983
-0.0429992
-0.0382363
-0.0315985
-0.0231627
-0.012986
-0.00121079
0.011842
0.025592
0.0391374
0.0512291
0.0603474
0.0650081
0.0638532
0.0541635
0.0345679
-0.0399424
-0.0566712
-0.0646796
-0.0664611
-0.0649212
-0.0608739
-0.0546894
-0.0465475
-0.0364493
-0.0243353
-0.0102152
0.00571173
0.022942
0.0405571
0.0571373
0.0707895
0.0794659
0.0810518
0.0715761
0.0488239
-0.0660322
-0.0844397
-0.0919992
-0.0920957
-0.0885261
-0.0824311
-0.0742812
-0.0642318
-0.0521687
-0.0378614
-0.0211202
-0.00194265
0.0193412
0.0418968
0.0642162
0.0840496
0.0986847
0.104959
0.0970243
0.0711486
-0.10055
-0.120541
-0.126501
-0.12342
-0.116481
-0.107282
-0.0964018
-0.0839285
-0.0695707
-0.0528543
-0.033307
-0.0106273
0.0151566
0.0434494
0.0728207
0.100786
0.123952
0.137808
0.133784
0.105458
-0.146641
-0.167497
-0.16951
-0.160666
-0.148244
-0.134398
-0.119748
-0.104212
-0.0872148
-0.0679392
-0.0455368
-0.0192817
0.0112359
0.0458721
0.0835489
0.12184
0.156847
0.182538
0.186635
0.158105
-0.210279
-0.229232
-0.222453
-0.203469
-0.182397
-0.161807
-0.14211
-0.122827
-0.102911
-0.0810632
-0.0559461
-0.0263083
0.00886374
0.0501195
0.0971191
0.148031
0.199011
0.242737
0.262491
0.239793
-0.303147
-0.31177
-0.286462
-0.250291
-0.216173
-0.18631
-0.160284
-0.136762
-0.113919
-0.0897827
-0.0624126
-0.0299342
0.00940232
0.0570861
0.113991
0.179712
0.251614
0.322183
0.370767
0.368285
-0.44809
-0.423606
-0.361706
-0.298089
-0.245418
-0.203708
-0.170532
-0.142877
-0.117666
-0.0920365
-0.0633393
-0.0290191
0.0134947
0.066852
0.133678
0.21614
0.31463
0.423798
0.523145
0.57275
-0.699179
-0.574727
-0.442775
-0.339269
-0.263075
-0.208339
-0.16881
-0.138546
-0.112652
-0.0872114
-0.0588808
-0.0244775
0.0193392
0.0764997
0.151921
0.251738
0.381867
0.544125
0.734049
0.916
-1.2055
-0.767561
-0.494341
-0.342578
-0.247381
-0.186234
-0.146821
-0.119448
-0.097361
-0.0759147
-0.0514937
-0.0206917
0.0200981
0.0756434
0.152967
0.262984
0.420764
0.648986
1.01114
1.55379
-2.10192
-0.957709
-0.44704
-0.261068
-0.17207
-0.123946
-0.0983532
-0.0834789
-0.0721578
-0.0601409
-0.044405
-0.0223492
0.00915155
0.0542214
0.11986
0.219407
0.378686
0.661734
1.28714
2.54744
)
;

boundaryField
{
    movingWall
    {
        type            zeroGradient;
    }
    fixedWalls
    {
        type            zeroGradient;
    }
    frontAndBack
    {
        type            empty;
    }
}


// ************************************************************************* //
