/*--------------------------------*- C++ -*----------------------------------*\
  =========                 |
  \\      /  F ield         | OpenFOAM: The Open Source CFD Toolbox
   \\    /   O peration     | Website:  https://openfoam.org
    \\  /    A nd           | Version:  9
     \\/     M anipulation  |
\*---------------------------------------------------------------------------*/
FoamFile
{
    format      ascii;
    class       surfaceScalarField;
    location    "0.4";
    object      phi;
}
// * * * * * * * * * * * * * * * * * * * * * * * * * * * * * * * * * * * * * //

dimensions      [0 3 -1 0 0 0 0];

internalField   nonuniform List<scalar> 
760
(
1.36694e-08
-1.3711e-08
-2.36171e-08
3.72865e-08
-1.15709e-07
9.20921e-08
-2.45886e-07
1.30177e-07
-3.94758e-07
1.48872e-07
-5.44364e-07
1.49605e-07
-6.79325e-07
1.34962e-07
-7.87136e-07
1.0781e-07
-8.58147e-07
7.10115e-08
-8.8567e-07
2.75221e-08
-8.663e-07
-1.93703e-08
-8.0045e-07
-6.58498e-08
-6.9293e-07
-1.07521e-07
-5.53369e-07
-1.39561e-07
-3.96245e-07
-1.57124e-07
-2.40228e-07
-1.56017e-07
-1.06528e-07
-1.337e-07
-1.59891e-08
-9.05392e-08
1.6598e-08
-3.25874e-08
1.65977e-08
-3.55562e-08
2.1845e-08
-1.8321e-07
1.84941e-07
-4.36798e-07
3.4568e-07
-7.65253e-07
4.58632e-07
-1.12986e-06
5.13479e-07
-1.49192e-06
5.11668e-07
-1.81655e-06
4.59592e-07
-2.07449e-06
3.65747e-07
-2.24301e-06
2.3953e-07
-2.30665e-06
9.11622e-08
-2.2581e-06
-6.79232e-08
-2.09921e-06
-2.24734e-07
-1.842e-06
-3.64737e-07
-1.50907e-06
-4.72489e-07
-1.13316e-06
-5.33029e-07
-7.55061e-07
-5.34119e-07
-4.19365e-07
-4.69397e-07
-1.67712e-07
-3.42192e-07
-2.87192e-08
-1.7158e-07
-1.21217e-08
-9.41824e-08
1.16027e-07
-3.60889e-07
4.51647e-07
-7.681e-07
7.5289e-07
-1.26912e-06
9.59652e-07
-1.81108e-06
1.05544e-06
-2.34168e-06
1.04227e-06
-2.81349e-06
9.31401e-07
-3.18641e-06
7.38663e-07
-3.42919e-06
4.82312e-07
-3.52065e-06
1.82626e-07
-3.4509e-06
-1.37673e-07
-3.22264e-06
-4.52996e-07
-2.85231e-06
-7.35064e-07
-2.37062e-06
-9.54184e-07
-1.82174e-06
-1.0819e-06
-1.26063e-06
-1.09523e-06
-7.47672e-07
-9.82359e-07
-3.4064e-07
-7.49224e-07
-8.43362e-08
-4.27884e-07
-9.6458e-08
-1.47706e-07
2.63733e-07
-5.29743e-07
8.33684e-07
-1.08438e-06
1.30753e-06
-1.74558e-06
1.62085e-06
-2.44651e-06
1.75636e-06
-3.12394e-06
1.7197e-06
-3.72157e-06
1.52903e-06
-4.19214e-06
1.20923e-06
-4.49884e-06
7.89018e-07
-4.61658e-06
3.00368e-07
-4.53328e-06
-2.2098e-07
-4.25135e-06
-7.34925e-07
-3.78915e-06
-1.19727e-06
-3.18183e-06
-1.5615e-06
-2.48097e-06
-1.78276e-06
-1.75215e-06
-1.82406e-06
-1.06971e-06
-1.66479e-06
-5.08848e-07
-1.31009e-06
-1.35832e-07
-8.009e-07
-2.3229e-07
-1.96208e-07
4.59941e-07
-6.87985e-07
1.32546e-06
-1.38422e-06
2.00376e-06
-2.19779e-06
2.43443e-06
-3.04738e-06
2.60596e-06
-3.85992e-06
2.53224e-06
-4.5723e-06
2.24141e-06
-5.1324e-06
1.76933e-06
-5.4998e-06
1.15641e-06
-5.6465e-06
4.47073e-07
-5.55813e-06
-3.0935e-07
-5.23548e-06
-1.05758e-06
-4.69642e-06
-1.73633e-06
-3.97759e-06
-2.28033e-06
-3.13518e-06
-2.62517e-06
-2.24369e-06
-2.71555e-06
-1.39175e-06
-2.51673e-06
-6.74671e-07
-2.02717e-06
-1.84413e-07
-1.29116e-06
-4.16702e-07
-2.41734e-07
7.01675e-07
-8.38994e-07
1.92272e-06
-1.67209e-06
2.83685e-06
-2.63213e-06
3.39446e-06
-3.62308e-06
3.59691e-06
-4.56279e-06
3.47196e-06
-5.38294e-06
3.06155e-06
-6.02839e-06
2.41479e-06
-6.45663e-06
1.58465e-06
-6.63756e-06
6.28008e-07
-6.55419e-06
-3.92723e-07
-6.20421e-06
-1.40756e-06
-5.60253e-06
-2.338e-06
-4.7843e-06
-3.09856e-06
-3.80757e-06
-3.6019e-06
-2.75427e-06
-3.76885e-06
-1.728e-06
-3.543e-06
-8.47222e-07
-2.90795e-06
-2.34056e-07
-1.90432e-06
-6.50758e-07
-2.86275e-07
9.87949e-07
-9.86818e-07
2.62326e-06
-1.95299e-06
3.80303e-06
-3.05352e-06
4.49499e-06
-4.17783e-06
4.72122e-06
-5.23585e-06
4.52998e-06
-6.15592e-06
3.98162e-06
-6.88201e-06
3.14088e-06
-7.3713e-06
2.07394e-06
-7.59257e-06
8.49277e-07
-7.52605e-06
-4.59246e-07
-7.16486e-06
-1.76875e-06
-6.51822e-06
-2.98464e-06
-5.61619e-06
-4.00059e-06
-4.515e-06
-4.7031e-06
-3.30148e-06
-4.98236e-06
-2.09398e-06
-4.75049e-06
-1.03719e-06
-3.96475e-06
-2.89122e-07
-2.65239e-06
-9.39879e-07
-3.31541e-07
1.31949e-06
-1.13504e-06
3.42676e-06
-2.23058e-06
4.89856e-06
-3.46334e-06
5.72775e-06
-4.70875e-06
5.96663e-06
-5.87082e-06
5.69205e-06
-6.87736e-06
4.98816e-06
-7.67443e-06
3.93795e-06
-8.22146e-06
2.62097e-06
-8.48781e-06
1.11563e-06
-8.4513e-06
-4.95753e-07
-8.09924e-06
-2.12081e-06
-7.43215e-06
-3.65172e-06
-6.47041e-06
-4.96233e-06
-5.26305e-06
-5.91046e-06
-3.897e-06
-6.34841e-06
-2.50323e-06
-6.14427e-06
-1.25503e-06
-5.21295e-06
-3.5396e-07
-3.55346e-06
-1.29384e-06
-3.79183e-07
1.69867e-06
-1.28692e-06
4.3345e-06
-2.50688e-06
6.11852e-06
-3.85862e-06
7.0795e-06
-5.20467e-06
7.31268e-06
-6.44635e-06
6.93373e-06
-7.51521e-06
6.05702e-06
-8.3638e-06
4.78654e-06
-8.95765e-06
3.21483e-06
-9.2695e-06
1.42747e-06
-9.27607e-06
-4.89181e-07
-8.9582e-06
-2.43868e-06
-8.30468e-06
-4.30523e-06
-7.32063e-06
-5.94639e-06
-6.04021e-06
-7.19088e-06
-4.54231e-06
-7.8463e-06
-2.96483e-06
-7.72175e-06
-1.51022e-06
-6.66756e-06
-4.32973e-07
-4.6307e-06
-1.72681e-06
-4.3148e-07
2.13015e-06
-1.44653e-06
5.34955e-06
-2.78319e-06
7.45518e-06
-4.23215e-06
8.52846e-06
-5.64519e-06
8.72572e-06
-6.92618e-06
8.21472e-06
-8.01677e-06
7.14761e-06
-8.88219e-06
5.65196e-06
-9.49952e-06
3.83216e-06
-9.84907e-06
1.77702e-06
-9.90912e-06
-4.29128e-07
-9.6545e-06
-2.6933e-06
-9.05979e-06
-4.89994e-06
-8.10865e-06
-6.89752e-06
-6.81035e-06
-8.48918e-06
-5.22321e-06
-9.43345e-06
-3.48076e-06
-9.46419e-06
-1.81086e-06
-8.33746e-06
-5.31047e-07
-5.91052e-06
-2.25786e-06
-4.9256e-07
2.62271e-06
-1.62074e-06
6.47774e-06
-3.06142e-06
8.89585e-06
-4.5723e-06
1.00393e-05
-5.99895e-06
1.01524e-05
-7.25625e-06
9.47202e-06
-8.30505e-06
8.19641e-06
-9.13158e-06
6.47849e-06
-9.73144e-06
4.43203e-06
-1.00982e-05
2.14373e-06
-1.02157e-05
-3.1158e-07
-1.00551e-05
-2.85396e-06
-9.5756e-06
-5.37939e-06
-8.73393e-06
-7.7392e-06
-7.5027e-06
-9.7204e-06
-5.90212e-06
-1.1034e-05
-4.04197e-06
-1.13243e-05
-2.16329e-06
-1.02161e-05
-6.54322e-07
-7.41949e-06
-2.91218e-06
-5.70413e-07
3.19313e-06
-1.8218e-06
7.72913e-06
-3.34478e-06
1.04188e-05
-4.8609e-06
1.15555e-05
-6.21916e-06
1.15106e-05
-7.35894e-06
1.06118e-05
-8.27294e-06
9.1104e-06
-8.97858e-06
7.18413e-06
-9.49795e-06
4.9514e-06
-9.84421e-06
2.48999e-06
-1.00124e-05
-1.43378e-07
-9.97393e-06
-2.89244e-06
-9.67478e-06
-5.67855e-06
-9.04133e-06
-8.37265e-06
-7.9984e-06
-1.07633e-05
-6.50639e-06
-1.2526e-05
-4.62138e-06
-1.32094e-05
-2.57069e-06
-1.22668e-05
-8.11465e-07
-9.17871e-06
-3.72364e-06
-6.80187e-07
3.87331e-06
-2.06987e-06
9.11881e-06
-3.63544e-06
1.19844e-05
-5.06539e-06
1.29854e-05
-6.23226e-06
1.26775e-05
-7.12107e-06
1.15006e-05
-7.77268e-06
9.76202e-06
-8.2467e-06
7.65815e-06
-8.59893e-06
5.30363e-06
-8.86779e-06
2.75885e-06
-9.06498e-06
5.38064e-08
-9.16849e-06
-2.78892e-06
-9.11673e-06
-5.7303e-06
-8.80826e-06
-8.68112e-06
-8.11341e-06
-1.14582e-05
-6.91056e-06
-1.37289e-05
-5.16124e-06
-1.49587e-05
-3.02932e-06
-1.43987e-05
-1.01559e-06
-1.11924e-05
-4.73923e-06
-8.4919e-07
4.7225e-06
-2.39265e-06
1.06623e-05
-3.92246e-06
1.35142e-05
-5.11724e-06
1.41802e-05
-5.91247e-06
1.34727e-05
-6.36991e-06
1.1958e-05
-6.59706e-06
9.98916e-06
-6.70428e-06
7.76537e-06
-6.7843e-06
5.38365e-06
-6.90258e-06
2.87713e-06
-7.0912e-06
2.42427e-07
-7.34147e-06
-2.53865e-06
-7.59492e-06
-5.47685e-06
-7.73346e-06
-8.54257e-06
-7.57756e-06
-1.16141e-05
-6.90932e-06
-1.43971e-05
-5.54921e-06
-1.63188e-05
-3.51788e-06
-1.64301e-05
-1.28619e-06
-1.34241e-05
-6.02543e-06
-1.12207e-06
5.84457e-06
-2.81249e-06
1.23527e-05
-4.14427e-06
1.4846e-05
-4.86029e-06
1.48962e-05
-5.02926e-06
1.36417e-05
-4.82898e-06
1.17578e-05
-4.44782e-06
9.60801e-06
-4.04647e-06
7.36403e-06
-3.74829e-06
5.08546e-06
-3.63969e-06
2.76854e-06
-3.77114e-06
3.73874e-07
-4.15288e-06
-2.15691e-06
-4.74371e-06
-4.88602e-06
-5.4315e-06
-7.85479e-06
-6.01095e-06
-1.10346e-05
-6.17651e-06
-1.42316e-05
-5.57222e-06
-1.69231e-05
-3.96776e-06
-1.80345e-05
-1.64615e-06
-1.57457e-05
-7.67158e-06
-1.55372e-06
7.39829e-06
-3.2886e-06
1.40876e-05
-4.08809e-06
1.56455e-05
-3.93966e-06
1.47478e-05
-3.15042e-06
1.28525e-05
-2.0464e-06
1.06537e-05
-8.90701e-07
8.45231e-06
1.26388e-07
6.34694e-06
8.73554e-07
4.3383e-06
1.26139e-06
2.38071e-06
1.23145e-06
4.03808e-07
7.54317e-07
-1.67978e-06
-1.60693e-07
-3.97101e-06
-1.43993e-06
-6.57555e-06
-2.90201e-06
-9.57254e-06
-4.20541e-06
-1.29282e-05
-4.82832e-06
-1.63002e-05
-4.18371e-06
-1.86792e-05
-2.09403e-06
-1.78354e-05
-9.76561e-06
-2.14902e-06
9.54731e-06
-3.52666e-06
1.54652e-05
-3.14748e-06
1.52663e-05
-1.58666e-06
1.3187e-05
5.12476e-07
1.07533e-05
2.69854e-06
8.46767e-06
4.68958e-06
6.46127e-06
6.32005e-06
4.71647e-06
7.49306e-06
3.16528e-06
8.14656e-06
1.72721e-06
8.23311e-06
3.17257e-07
7.71168e-06
-1.15835e-06
6.55129e-06
-2.81062e-06
4.75338e-06
-4.77764e-06
2.40449e-06
-7.22366e-06
-2.28265e-07
-1.02954e-05
-2.56967e-06
-1.39587e-05
-3.66181e-06
-1.7587e-05
-2.50924e-06
-1.8988e-05
-1.22749e-05
-2.63503e-06
1.21823e-05
-2.44004e-06
1.52702e-05
2.01154e-07
1.26251e-05
3.74079e-06
9.64734e-06
7.29628e-06
7.19783e-06
1.04668e-05
5.29718e-06
1.30887e-05
3.83933e-06
1.51091e-05
2.6961e-06
1.65178e-05
1.7566e-06
1.73113e-05
9.33726e-07
1.74735e-05
1.55072e-07
1.69663e-05
-6.51154e-07
1.57241e-05
-1.56841e-06
1.3661e-05
-2.71457e-06
1.07038e-05
-4.26648e-06
6.88748e-06
-6.47911e-06
2.56918e-06
-9.64045e-06
-1.19845e-06
-1.38194e-05
-2.40643e-06
-1.778e-05
-1.46813e-05
-1.03787e-06
1.32202e-05
3.44173e-06
1.07906e-05
9.39101e-06
6.6758e-06
1.47629e-05
4.27548e-06
1.91368e-05
2.82391e-06
2.2544e-05
1.89001e-06
2.51119e-05
1.27142e-06
2.69664e-05
8.41557e-07
2.82032e-05
5.1982e-07
2.88809e-05
2.56057e-07
2.90184e-05
1.75049e-08
2.85951e-05
-2.27839e-07
2.75366e-05
-5.09944e-07
2.57039e-05
-8.81861e-07
2.28744e-05
-1.43691e-06
1.8751e-05
-2.35578e-06
1.30947e-05
-3.98413e-06
6.21171e-06
-6.93638e-06
2.75804e-07
-1.18441e-05
-1.44055e-05
1.32202e-05
2.40108e-05
3.06867e-05
3.49621e-05
3.7786e-05
3.96761e-05
4.09475e-05
4.1789e-05
4.23089e-05
4.25649e-05
4.25824e-05
4.23546e-05
4.18446e-05
4.09628e-05
3.95259e-05
3.71701e-05
3.3186e-05
2.62496e-05
1.44055e-05
)
;

boundaryField
{
    movingWall
    {
        type            calculated;
        value           uniform 0;
    }
    fixedWalls
    {
        type            calculated;
        value           uniform 0;
    }
    frontAndBack
    {
        type            empty;
        value           nonuniform List<scalar> 0();
    }
}


// ************************************************************************* //
