/*--------------------------------*- C++ -*----------------------------------*\
  =========                 |
  \\      /  F ield         | OpenFOAM: The Open Source CFD Toolbox
   \\    /   O peration     | Website:  https://openfoam.org
    \\  /    A nd           | Version:  9
     \\/     M anipulation  |
\*---------------------------------------------------------------------------*/
FoamFile
{
    format      ascii;
    class       volVectorField;
    location    "0.4";
    object      U;
}
// * * * * * * * * * * * * * * * * * * * * * * * * * * * * * * * * * * * * * //

dimensions      [0 1 -1 0 0 0 0];

internalField   nonuniform List<vector> 
400
(
(0.000248596 -0.000246328 0)
(0.000121523 0.000117758 0)
(-0.00120814 0.000563766 0)
(-0.00350254 0.00087442 0)
(-0.00636905 0.00102901 0)
(-0.00942437 0.00104572 0)
(-0.0123305 0.000949094 0)
(-0.0148068 0.000762692 0)
(-0.0166305 0.00050751 0)
(-0.0176372 0.000203798 0)
(-0.0177243 -0.000126157 0)
(-0.0168597 -0.000455798 0)
(-0.0150939 -0.000753299 0)
(-0.0125711 -0.000982328 0)
(-0.00953416 -0.00110472 0)
(-0.00632036 -0.00108545 0)
(-0.00333878 -0.000900316 0)
(-0.00102517 -0.00054694 0)
(0.00023227 -7.56753e-05 0)
(0.000277102 0.000270153 0)
(-8.97579e-05 -0.000147702 0)
(-0.00165529 0.00167389 0)
(-0.00575683 0.00361786 0)
(-0.0117622 0.00499721 0)
(-0.0188791 0.00568182 0)
(-0.0263202 0.00570189 0)
(-0.0333399 0.00514237 0)
(-0.0392892 0.00410644 0)
(-0.0436441 0.00270228 0)
(-0.0460191 0.00104429 0)
(-0.0461822 -0.000739957 0)
(-0.0440743 -0.00250386 0)
(-0.0398309 -0.00408072 0)
(-0.0337985 -0.00529032 0)
(-0.0265366 -0.00595462 0)
(-0.0187957 -0.005924 0)
(-0.0114516 -0.00511516 0)
(-0.00539378 -0.00355995 0)
(-0.00141723 -0.00150121 0)
(-2.01564e-05 0.000264466 0)
(-0.000547459 0.00114725 0)
(-0.003774 0.00580296 0)
(-0.0106741 0.0102262 0)
(-0.0200428 0.0133267 0)
(-0.0307371 0.0148157 0)
(-0.0417065 0.0147171 0)
(-0.0519454 0.013198 0)
(-0.0605671 0.0104919 0)
(-0.0668514 0.00686425 0)
(-0.0702686 0.00260778 0)
(-0.0705023 -0.00194955 0)
(-0.067475 -0.00643675 0)
(-0.0613742 -0.0104419 0)
(-0.0526717 -0.0135306 0)
(-0.0421247 -0.0152861 0)
(-0.0307448 -0.0153717 0)
(-0.0197091 -0.0136189 0)
(-0.010218 -0.0101299 0)
(-0.00344609 -0.00542843 0)
(-0.000443667 -0.000859898 0)
(-0.00095349 0.00358207 0)
(-0.00576677 0.0123294 0)
(-0.0153869 0.0199111 0)
(-0.0279357 0.0250473 0)
(-0.0418882 0.0273691 0)
(-0.0559665 0.0269334 0)
(-0.0689741 0.0240205 0)
(-0.0798639 0.0190281 0)
(-0.0877883 0.0124185 0)
(-0.0921228 0.00470804 0)
(-0.0924895 -0.00352483 0)
(-0.0887851 -0.01163 0)
(-0.0812119 -0.0188912 0)
(-0.0703035 -0.0245583 0)
(-0.056934 -0.027913 0)
(-0.0422951 -0.0283743 0)
(-0.0278053 -0.0256397 0)
(-0.0149638 -0.0198425 0)
(-0.00539087 -0.0117363 0)
(-0.000819703 -0.0030691 0)
(-0.00130793 0.00703413 0)
(-0.00760557 0.0210922 0)
(-0.0198401 0.0324509 0)
(-0.0354366 0.0398351 0)
(-0.0524632 0.0429238 0)
(-0.0694209 0.0418868 0)
(-0.0849571 0.0371695 0)
(-0.0979115 0.0293687 0)
(-0.107354 0.0191702 0)
(-0.112598 0.00733556 0)
(-0.113213 -0.005285 0)
(-0.109055 -0.0177387 0)
(-0.100303 -0.0289746 0)
(-0.0874951 -0.0378839 0)
(-0.0715614 -0.0433901 0)
(-0.0538238 -0.0445951 0)
(-0.0359248 -0.0409762 0)
(-0.0196925 -0.0326028 0)
(-0.00727055 -0.0203552 0)
(-0.00115645 -0.0062699 0)
(-0.00163368 0.0114209 0)
(-0.00934612 0.0319976 0)
(-0.0241084 0.0477645 0)
(-0.0426483 0.0575988 0)
(-0.0626146 0.0613639 0)
(-0.0822924 0.0594467 0)
(-0.100198 0.0525271 0)
(-0.115096 0.0414428 0)
(-0.126011 0.0271238 0)
(-0.132216 0.0105844 0)
(-0.133236 -0.00705345 0)
(-0.12887 -0.0245322 0)
(-0.119229 -0.0404528 0)
(-0.104801 -0.0533138 0)
(-0.086508 -0.0616151 0)
(-0.0657566 -0.0640425 0)
(-0.0444006 -0.0597263 0)
(-0.0246349 -0.0485333 0)
(-0.00921276 -0.0313482 0)
(-0.00149241 -0.0104392 0)
(-0.00195204 0.0167027 0)
(-0.0110521 0.0449839 0)
(-0.0282863 0.0657775 0)
(-0.0496731 0.07824 0)
(-0.0724359 0.0825654 0)
(-0.0946567 0.0794788 0)
(-0.114755 0.0699788 0)
(-0.13146 0.0551909 0)
(-0.143794 0.0363045 0)
(-0.151021 0.0145786 0)
(-0.152631 -0.0086134 0)
(-0.148345 -0.0317311 0)
(-0.138169 -0.0530352 0)
(-0.122472 -0.0706083 0)
(-0.102091 -0.0824578 0)
(-0.078449 -0.0867291 0)
(-0.0535769 -0.0820339 0)
(-0.0300618 -0.0678446 0)
(-0.0113682 -0.0448937 0)
(-0.00186913 -0.0156404 0)
(-0.00228104 0.0228772 0)
(-0.0127815 0.0600269 0)
(-0.0324558 0.0864189 0)
(-0.0565717 0.101626 0)
(-0.0819194 0.106341 0)
(-0.106406 0.101771 0)
(-0.128404 0.0893318 0)
(-0.146671 0.0704883 0)
(-0.160283 0.046697 0)
(-0.168542 0.0194372 0)
(-0.17092 -0.00971162 0)
(-0.167061 -0.0389765 0)
(-0.156817 -0.0663149 0)
(-0.140361 -0.0893932 0)
(-0.118343 -0.105664 0)
(-0.0920895 -0.11259 0)
(-0.063729 -0.108039 0)
(-0.0362323 -0.0908255 0)
(-0.0138904 -0.0612963 0)
(-0.00232881 -0.0220257 0)
(-0.00263884 0.0299746 0)
(-0.0145916 0.0771372 0)
(-0.036686 0.109609 0)
(-0.0633525 0.127556 0)
(-0.0909366 0.132382 0)
(-0.11722 0.125958 0)
(-0.14061 0.110234 0)
(-0.159983 0.0870664 0)
(-0.174552 0.0581784 0)
(-0.183726 0.025226 0)
(-0.187006 -0.0100786 0)
(-0.183962 -0.0458164 0)
(-0.174262 -0.0797197 0)
(-0.157794 -0.109079 0)
(-0.134884 -0.130755 0)
(-0.106594 -0.141379 0)
(-0.0749935 -0.137803 0)
(-0.0433631 -0.117802 0)
(-0.0169331 -0.080977 0)
(-0.00291747 -0.0298351 0)
(-0.00305192 0.0380617 0)
(-0.0165606 0.0963577 0)
(-0.0410563 0.13523 0)
(-0.0699823 0.155698 0)
(-0.0992296 0.160176 0)
(-0.126541 0.151424 0)
(-0.150482 0.132067 0)
(-0.170179 0.10441 0)
(-0.185102 0.0704291 0)
(-0.194861 0.0318898 0)
(-0.199061 -0.00946716 0)
(-0.197231 -0.0517058 0)
(-0.188836 -0.0924655 0)
(-0.173399 -0.128762 0)
(-0.150757 -0.156887 0)
(-0.121472 -0.172517 0)
(-0.0872869 -0.171162 0)
(-0.0516039 -0.149051 0)
(-0.0206593 -0.104446 0)
(-0.00369288 -0.0394007 0)
(-0.00356993 0.0472651 0)
(-0.0188247 0.117775 0)
(-0.0456937 0.163093 0)
(-0.0764001 0.185512 0)
(-0.10639 0.188885 0)
(-0.133521 0.177168 0)
(-0.156706 0.153821 0)
(-0.175496 0.121642 0)
(-0.189775 0.0828294 0)
(-0.199482 0.0391666 0)
(-0.20442 -0.00771458 0)
(-0.204146 -0.0560339 0)
(-0.197942 -0.103533 0)
(-0.184905 -0.147142 0)
(-0.164216 -0.1827 0)
(-0.135637 -0.204881 0)
(-0.100184 -0.20753 0)
(-0.0609987 -0.184654 0)
(-0.0252563 -0.132257 0)
(-0.00473862 -0.051164 0)
(-0.00429223 0.0578262 0)
(-0.0216357 0.141545 0)
(-0.050814 0.19288 0)
(-0.0825031 0.216122 0)
(-0.11179 0.217206 0)
(-0.136917 0.201664 0)
(-0.157421 0.173959 0)
(-0.173511 0.137407 0)
(-0.185661 0.0943579 0)
(-0.194281 0.046494 0)
(-0.199488 -0.00482584 0)
(-0.200967 -0.0581862 0)
(-0.197886 -0.111688 0)
(-0.188917 -0.162462 0)
(-0.172455 -0.20616 0)
(-0.147142 -0.236562 0)
(-0.112719 -0.245605 0)
(-0.0714061 -0.224271 0)
(-0.0309556 -0.164932 0)
(-0.00618843 -0.0657145 0)
(-0.00541504 0.070213 0)
(-0.0254406 0.167935 0)
(-0.0567314 0.224039 0)
(-0.0880394 0.246126 0)
(-0.114376 0.243152 0)
(-0.134842 0.222679 0)
(-0.14999 0.190294 0)
(-0.160954 0.14978 0)
(-0.168973 0.103518 0)
(-0.175043 0.0529339 0)
(-0.179706 -0.00106311 0)
(-0.182889 -0.0576438 0)
(-0.183776 -0.11556 0)
(-0.180715 -0.172526 0)
(-0.171305 -0.224448 0)
(-0.152807 -0.264584 0)
(-0.123052 -0.282967 0)
(-0.0823278 -0.266769 0)
(-0.0380439 -0.202814 0)
(-0.00826712 -0.0838662 0)
(-0.00731071 0.0853166 0)
(-0.0309695 0.197308 0)
(-0.0637409 0.255516 0)
(-0.092249 0.273245 0)
(-0.112171 0.263771 0)
(-0.12425 0.237098 0)
(-0.130556 0.19991 0)
(-0.133399 0.156264 0)
(-0.134875 0.108354 0)
(-0.136603 0.0571635 0)
(-0.139591 0.00298841 0)
(-0.144109 -0.0541127 0)
(-0.149532 -0.113813 0)
(-0.15413 -0.174838 0)
(-0.154905 -0.233969 0)
(-0.14771 -0.284674 0)
(-0.127909 -0.315585 0)
(-0.0925276 -0.309629 0)
(-0.0468119 -0.245748 0)
(-0.0113455 -0.106772 0)
(-0.010626 0.10475 0)
(-0.0392186 0.229935 0)
(-0.0715963 0.285194 0)
(-0.0929123 0.29377 0)
(-0.101178 0.274793 0)
(-0.0999406 0.240824 0)
(-0.0932782 0.199256 0)
(-0.0847655 0.153975 0)
(-0.0772557 0.10665 0)
(-0.0728429 0.0576164 0)
(-0.0729012 0.0064452 0)
(-0.0780711 -0.0476549 0)
(-0.0881129 -0.105431 0)
(-0.101593 -0.166976 0)
(-0.115438 -0.230651 0)
(-0.12452 -0.291256 0)
(-0.121626 -0.337313 0)
(-0.0991777 -0.348046 0)
(-0.057231 -0.292394 0)
(-0.015946 -0.136019 0)
(-0.0162413 0.131312 0)
(-0.050854 0.265234 0)
(-0.0778222 0.308666 0)
(-0.0840908 0.301698 0)
(-0.0732207 0.270356 0)
(-0.0528484 0.228962 0)
(-0.0291742 0.184597 0)
(-0.00668142 0.140194 0)
(0.0114932 0.096447 0)
(0.0232067 0.0528676 0)
(0.0270147 0.00831074 0)
(0.0220249 -0.0387641 0)
(0.00796192 -0.0900898 0)
(-0.0144984 -0.147225 0)
(-0.0430483 -0.210673 0)
(-0.0727026 -0.277915 0)
(-0.0945761 -0.339607 0)
(-0.0959836 -0.373701 0)
(-0.0677492 -0.338895 0)
(-0.0224087 -0.173756 0)
(-0.0244342 0.170007 0)
(-0.0635988 0.299517 0)
(-0.0730399 0.316476 0)
(-0.0512812 0.287265 0)
(-0.0121834 0.242861 0)
(0.0323804 0.19648 0)
(0.0751848 0.15299 0)
(0.112014 0.113356 0)
(0.14043 0.0768973 0)
(0.158962 0.042284 0)
(0.166581 0.00786092 0)
(0.162422 -0.0283128 0)
(0.145714 -0.0685255 0)
(0.116009 -0.115432 0)
(0.0738555 -0.171696 0)
(0.0222751 -0.238516 0)
(-0.0307488 -0.311625 0)
(-0.0694916 -0.373033 0)
(-0.0720325 -0.376323 0)
(-0.0293639 -0.22313 0)
(-0.0304254 0.22668 0)
(-0.0634768 0.319395 0)
(-0.0296823 0.289767 0)
(0.0375875 0.236315 0)
(0.111313 0.184556 0)
(0.179757 0.140482 0)
(0.238171 0.104425 0)
(0.284766 0.0747635 0)
(0.319108 0.0495246 0)
(0.341185 0.0268803 0)
(0.350868 0.00513459 0)
(0.347653 -0.0174749 0)
(0.330506 -0.043046 0)
(0.297841 -0.0743772 0)
(0.247831 -0.115285 0)
(0.179581 -0.170366 0)
(0.0956912 -0.242662 0)
(0.00763318 -0.326181 0)
(-0.0512153 -0.384154 0)
(-0.0281194 -0.283343 0)
(0.00229451 0.274027 0)
(0.00915783 0.285876 0)
(0.123156 0.206603 0)
(0.244417 0.143732 0)
(0.343287 0.100083 0)
(0.420646 0.0697272 0)
(0.479901 0.0483728 0)
(0.523729 0.0328173 0)
(0.554347 0.020785 0)
(0.573329 0.0107176 0)
(0.581479 0.00146532 0)
(0.578807 -0.00798855 0)
(0.564402 -0.0188656 0)
(0.536186 -0.0329514 0)
(0.490607 -0.0532615 0)
(0.422485 -0.0850033 0)
(0.324725 -0.136404 0)
(0.191157 -0.217054 0)
(0.0515252 -0.318659 0)
(0.022777 -0.310027 0)
(0.294218 0.144759 0)
(0.385827 0.126861 0)
(0.543918 0.0771279 0)
(0.66086 0.0455524 0)
(0.73202 0.0274363 0)
(0.777588 0.0167951 0)
(0.808273 0.0103957 0)
(0.828909 0.00637717 0)
(0.842227 0.00365006 0)
(0.849825 0.00158913 0)
(0.852511 -0.0001859 0)
(0.850473 -0.00194417 0)
(0.843298 -0.00401462 0)
(0.829787 -0.00689425 0)
(0.80739 -0.011564 0)
(0.771063 -0.0201058 0)
(0.709342 -0.036896 0)
(0.596309 -0.0703 0)
(0.424581 -0.12744 0)
(0.312515 -0.151331 0)
)
;

boundaryField
{
    movingWall
    {
        type            fixedValue;
        value           uniform (1 0 0);
    }
    fixedWalls
    {
        type            noSlip;
    }
    frontAndBack
    {
        type            empty;
    }
}


// ************************************************************************* //
